                  Welcome to Q-Chem
     A Quantum Leap Into The Future Of Chemistry


 Q-Chem 6.0 (devel), Q-Chem, Inc., Pleasanton, CA (2022)

 E. Epifanovsky,  A. T. B. Gilbert,  Xintian Feng,  Joonho Lee,  Yuezhi Mao,  
 N. Mardirossian,  P. Pokhilko,  A. White,  M. Wormit,  M. P. Coons,  
 A. L. Dempwolff,  Zhengting Gan,  D. Hait,  P. R. Horn,  L. D. Jacobson,  
 I. Kaliman,  J. Kussmann,  A. W. Lange,  Ka Un Lao,  D. S. Levine,  Jie Liu,  
 S. C. McKenzie,  A. F. Morrison,  K. Nanda,  F. Plasser,  D. R. Rehn,  
 M. L. Vidal,  Zhi-Qiang You,  Ying Zhu,  B. Alam,  B. Albrecht,  
 A. Aldossary,  E. Alguire,  J. H. Andersen,  V. Athavale,  D. Barton,  
 K. Begam,  A. Behn,  N. Bellonzi,  Y. A. Bernard,  E. J. Berquist,  
 H. Burton,  A. Carreras,  K. Carter-Fenk,  Romit Chakraborty,  
 Chandrima Chakravarty,  Junhan Chen,  A. D. Chien,  K. D. Closser,  
 V. Cofer-Shabica,  L. Cunha,  S. Dasgupta,  Jia Deng,  M. de Wergifosse,  
 M. Diedenhofen,  Hainam Do,  S. Ehlert,  Po-Tung Fang,  S. Fatehi,  
 Qingguo Feng,  T. Friedhoff,  B. Ganoe,  J. Gayvert,  Qinghui Ge,  
 G. Gidofalvi,  M. Goldey,  J. Gomes,  C. Gonzalez-Espinoza,  S. Gulania,  
 A. Gunina,  J. A. Gyamfi,  M. W. D. Hanson-Heine,  P. H. P. Harbach,  
 A. W. Hauser,  M. F. Herbst,  M. Hernandez Vera,  M. Hodecker,  
 Z. C. Holden,  S. Houck,  Xunkun Huang,  Kerwin Hui,  B. C. Huynh,  
 K. Ikeda,  M. Ivanov,  Hyunjun Ji,  Zuxin Jin,  Hanjie Jiang,  B. Kaduk,  
 S. Kaehler,  R. Kang,  K. Khistyaev,  Jaehoon Kim,  Yongbin Kim,  
 P. Klunzinger,  Z. Koczor-Benda,  Joong Hoon Koh,  D. Kosenkov,  
 Saikiran Kotaru,  L. Koulias,  T. Kowalczyk,  C. M. Krauter,  K. Kue,  
 A. Kunitsa,  T. Kus,  A. Landau,  K. V. Lawler,  D. Lefrancois,  S. Lehtola,  
 Rain Li,  Shaozhi Li,  Yi-Pei Li,  Jiashu Liang,  M. Liebenthal,  
 Hung-Hsuan Lin,  You-Sheng Lin,  Fenglai Liu,  Kuan-Yu Liu,  
 M. Loipersberger,  A. Luenser,  C. Malbon,  A. Manjanath,  P. Manohar,  
 E. Mansoor,  S. F. Manzer,  Shan-Ping Mao,  A. V. Marenich,  T. Markovich,  
 S. Mason,  F. Matz,  S. A. Maurer,  P. F. McLaughlin,  M. F. S. J. Menger,  
 J.-M. Mewes,  S. A. Mewes,  P. Morgante,  Mohammad Mostafanejad,  
 J. W. Mullinax,  K. J. Oosterbaan,  G. Paran,  V. Parravicini,  
 Alexander C. Paul,  Suranjan K. Paul,  F. Pavosevic,  Zheng Pei,  S. Prager,  
 E. I. Proynov,  E. Ramos,  B. Rana,  A. E. Rask,  A. Rettig,  R. M. Richard,  
 F. Rob,  E. Rossomme,  T. Scheele,  M. Scheurer,  M. Schneider,  
 P. E. Schneider,  N. Sergueev,  S. M. Sharada,  Hengyuan Shen,  
 W. Skomorowski,  D. W. Small,  C. J. Stein,  Yingli Su,  Yu-Chuan Su,  
 E. J. Sundstrom,  Zhen Tao,  J. Thirman,  Hung-Yi Tsai,  T. Tsuchimochi,  
 N. M. Tubman,  C. Utku,  S. P. Veccham,  O. Vydrov,  J. Wenzel,  
 Jonathan Wong,  J. Witte,  A. Yamada,  Chou-Hsun Yang,  Kun Yao,  
 S. Yeganeh,  S. R. Yost,  A. Zech,  F. Zeller,  Igor Ying Zhang,  
 Xing Zhang,  Yu Zhang,  D. Zuev,  A. Aspuru-Guzik,  A. T. Bell,  
 N. A. Besley,  K. B. Bravaya,  B. R. Brooks,  D. Casanova,  Jeng-Da Chai,  
 Hsing-Ta Chen,  S. Coriani,  C. J. Cramer,  A. E. DePrince, III,  
 R. A. DiStasio Jr.,  A. Dreuw,  B. D. Dunietz,  T. R. Furlani,  
 W. A. Goddard III,  S. Grimme,  S. Hammes-Schiffer,  T. Head-Gordon,  
 W. J. Hehre,  Chao-Ping Hsu,  T.-C. Jagau,  Yousung Jung,  A. Klamt,  
 Jing Kong,  D. S. Lambrecht,  Xiangyuan Li,  WanZhen Liang,  N. J. Mayhall,  
 C. W. McCurdy,  J. B. Neaton,  T. Neudecker,  C. Ochsenfeld,  
 J. A. Parkhill,  R. Peverati,  V. A. Rassolov,  Haisheng Ren,  Yihan Shao,  
 L. V. Slipchenko,  R. P. Steele,  J. E. Subotnik,  A. J. W. Thom,  
 A. Tkatchenko,  D. G. Truhlar,  T. Van Voorhis,  Fan Wang,  
 T. A. Wesolowski,  K. B. Whaley,  H. L. Woodcock III,  P. M. Zimmerman,  
 S. Faraji,  P. M. W. Gill,  M. Head-Gordon,  J. M. Herbert,  A. I. Krylov

 Contributors to earlier versions of Q-Chem not listed above: 
 R. D. Adamson,  B. Austin,  R. Baer,  J. Baker,  G. J. O. Beran,  
 K. Brandhorst,  S. T. Brown,  E. F. C. Byrd,  Arup K. Chakraborty,  
 G. K. L. Chan,  Chun-Min Chang,  Yunqing Chen,  C.-L. Cheng,  
 Siu Hung Chien,  D. M. Chipman,  D. L. Crittenden,  H. Dachsel,  
 R. J. Doerksen,  A. D. Dutoi,  R. G. Edgar,  J. Fosso-Tande,  
 L. Fusti-Molnar,  D. Ghosh,  A. Ghysels,  A. Golubeva-Zadorozhnaya,  
 J. Gonthier,  M. S. Gordon,  S. R. Gwaltney,  G. Hawkins,  J. E. Herr,  
 A. Heyden,  S. Hirata,  E. G. Hohenstein,  G. Kedziora,  F. J. Keil,  
 C. Kelley,  Jihan Kim,  R. A. King,  R. Z. Khaliullin,  P. P. Korambath,  
 W. Kurlancheek,  A. Laurent,  A. M. Lee,  M. S. Lee,  S. V. Levchenko,  
 Ching Yeh Lin,  D. Liotard,  E. Livshits,  R. C. Lochan,  I. Lotan,  
 L. A. Martinez-Martinez,  P. E. Maslen,  N. Nair,  D. P. O'Neill,  
 D. Neuhauser,  E. Neuscamman,  C. M. Oana,  R. Olivares-Amaya,  R. Olson,  
 T. M. Perrine,  B. Peters,  P. A. Pieniazek,  A. Prociuk,  Y. M. Rhee,  
 J. Ritchie,  M. A. Rohrdanz,  E. Rosta,  N. J. Russ,  H. F. Schaefer III,  
 M. W. Schmidt,  N. E. Schultz,  S. Sharma,  N. Shenvi,  C. D. Sherrill,  
 A. C. Simmonett,  A. Sodt,  T. Stein,  D. Stuck,  K. S. Thanthiriwatte,  
 V. Vanovschi,  L. Vogt,  Tao Wang,  A. Warshel,  M. A. Watson,  
 C. F. Williams,  Q. Wu,  X. Xu,  Jun Yang,  W. Zhang,  Yan Zhao

   Please cite Q-Chem as follows:
  "Software for the frontiers of quantum chemistry:
   An overview of developments in the Q-Chem 5 package"
   J. Chem. Phys. 155, 084801 (2021)
   https://doi.org/10.1063/5.0055522 (open access)

 Q-Chem 6.0.0 for Mac (Intel) OS X

 Parts of Q-Chem use Armadillo 9.900.5 (Nocturnal Misbehaviour).
 http://arma.sourceforge.net/

 Q-Chem begins on Thu Dec 22 16:35:27 2022  

 Host: Andrews-MBP.modem
0

     Scratch files written to /Users/agilbert/Development/QChem/scratch/qchem68188//
 Processing $rem in /Users/agilbert/Development/QChem/tkt2864/config/preferences:
 Processing $rem in /Users/agilbert/.qchemrc:

 Checking the input file for inconsistencies... 	...done.

--------------------------------------------------------------
User input:
--------------------------------------------------------------
$molecule
0 1
C      0.0000000000    1.1875260400   -0.9222574453
H      0.0000000000    2.1040448420   -0.3278874451
H      0.8829100000    1.1527498559   -1.5686567469
H     -0.8829100000    1.1527498559   -1.5686567469
C      0.0000000000    0.0000000000    0.0000000000
O      0.0000000000   -0.0000000000    1.1898062021
Cl     0.0000000000   -1.5820990033   -0.9145005744
$end

$rem
JOBTYPE  SP  
METHOD  B3LYP
BASIS  6-31G(D)
SYMMETRY  FALSE
SYM_IGNORE  TRUE
SCF_CONVERGENCE  8
ESP_GRID  -1  
MAKE_CUBE_FILES   TRUE
GUI  2
$end

$plots
plot the ESP 
100  -4.0  4.0 
100  -5.0  5.0 
100  -5.0  5.0 
0 0 0 0 
0
$end
--------------------------------------------------------------
 ----------------------------------------------------------------
             Standard Nuclear Orientation (Angstroms)
    I     Atom           X                Y                Z
 ----------------------------------------------------------------
    1      C       0.0000000000     1.1875260400    -0.9222574453
    2      H       0.0000000000     2.1040448420    -0.3278874451
    3      H       0.8829100000     1.1527498559    -1.5686567469
    4      H      -0.8829100000     1.1527498559    -1.5686567469
    5      C       0.0000000000     0.0000000000     0.0000000000
    6      O       0.0000000000    -0.0000000000     1.1898062021
    7      Cl      0.0000000000    -1.5820990033    -0.9145005744
 ----------------------------------------------------------------
 Nuclear Repulsion Energy =         147.78366419 hartrees
 There are       20 alpha and       20 beta electrons
 Requested basis set is 6-31G(d)
 There are 23 shells and 70 basis functions

 Total QAlloc Memory Limit   2000 MB
 Mega-Array Size       188 MB
 MEM_STATIC part       192 MB


                       Distance Matrix (Angstroms)
             C (  1)   H (  2)   H (  3)   H (  4)   C (  5)   O (  6)
   H (  2)  1.092375
   H (  3)  1.094793  1.795550
   H (  4)  1.094793  1.795550  1.765820
   C (  5)  1.503588  2.129440  2.137533  2.137533
   O (  6)  2.423021  2.594301  3.117287  3.117287  1.189806
   Cl(  7)  2.769636  3.732529  2.947346  2.947346  1.827388  2.632707


 A cutoff of  1.0D-12 yielded    269 shell pairs
 There are      2586 function pairs
 Smallest overlap matrix eigenvalue = 5.08E-03

 Scale SEOQF with 1.000000e+00/1.000000e-01/1.000000e-01

 Standard Electronic Orientation quadrupole field applied
 Nucleus-field energy     =     0.0000000009 hartrees
 Guess from superposition of atomic densities
 Warning:  Energy on first SCF cycle will be non-variational
 SAD guess density has 40.000000 electrons

 -----------------------------------------------------------------------
  General SCF calculation program by
  Eric Jon Sundstrom, Paul Horn, Yuezhi Mao, Dmitri Zuev, Alec White,
  David Stuck, Shaama M.S., Shane Yost, Joonho Lee, David Small,
  Daniel Levine, Susi Lehtola, Hugh Burton, Evgeny Epifanovsky,
  Bang C. Huynh
 -----------------------------------------------------------------------
 Exchange:     0.2000 Hartree-Fock + 0.0800 Slater + 0.7200 B88
 Correlation:  0.1900 VWN1RPA + 0.8100 LYP
 Using SG-1 standard quadrature grid
 A restricted SCF calculation will be
 performed using DIIS
 SCF converges when DIIS error is below 1.0e-08
 ---------------------------------------
  Cycle       Energy         DIIS error
 ---------------------------------------
    1    -613.9503418139      8.48e-02  
    2    -613.3460950798      1.39e-02  
    3    -613.0199438205      3.00e-02  
    4    -613.4340249521      4.42e-03  
    5    -613.4454571958      9.37e-04  
    6    -613.4458623723      3.02e-04  
    7    -613.4459130370      8.73e-05  
    8    -613.4459181706      2.39e-05  
    9    -613.4459185014      3.31e-06  
   10    -613.4459185094      7.60e-07  
   11    -613.4459185098      1.21e-07  
   12    -613.4459185098      2.16e-08  
   13    -613.4459185098      5.02e-09  Convergence criterion met
 ---------------------------------------
 SCF time:   CPU 0.97s  wall 1.00s 
 SCF   energy in the final basis set =     -613.4459185098
 Total energy in the final basis set =     -613.4459185098

 --------------------------------------------------------------

                    Orbital Energies (a.u.)
 --------------------------------------------------------------

 Alpha MOs
 -- Occupied --
******** -19.1908 -10.3490 -10.2272  -9.4637  -7.2265  -7.2188  -7.2174
 -1.0987  -0.8495  -0.7693  -0.5666  -0.4960  -0.4805  -0.4768  -0.4248
 -0.4050  -0.3244  -0.3217  -0.2993
 -- Virtual --
 -0.0416   0.0162   0.0943   0.1335   0.1458   0.2217   0.2654   0.3730
  0.4193   0.4517   0.4520   0.5148   0.5218   0.5827   0.6476   0.6611
  0.6817   0.7793   0.8245   0.8533   0.8675   0.8710   0.8783   0.8902
  0.9177   1.0139   1.0166   1.0371   1.1046   1.2977   1.3747   1.5363
  1.5606   1.7056   1.7899   1.7925   1.8169   2.0322   2.0364   2.1496
  2.2732   2.3547   2.5083   2.5721   2.8225   2.9450   3.8917   4.0294
  4.2541   4.3583
 --------------------------------------------------------------

          Ground-State Mulliken Net Atomic Charges

     Atom                 Charge (a.u.)
  ----------------------------------------
      1 C                    -0.507249
      2 H                     0.197084
      3 H                     0.204454
      4 H                     0.204454
      5 C                     0.316215
      6 O                    -0.332224
      7 Cl                   -0.082733
  ----------------------------------------
  Sum of atomic charges =     0.000000

 -----------------------------------------------------------------
                    Cartesian Multipole Moments
 -----------------------------------------------------------------
    Charge (ESU x 10^10)
                 0.0000
    Dipole Moment (Debye)
         X       0.0000      Y       2.3043      Z      -1.7208
       Tot       2.8759
    Quadrupole Moments (Debye-Ang)
        XX     -29.1901     XY       0.0000     YY     -30.1171
        XZ      -0.0000     YZ      -1.7516     ZZ     -31.7416
    Octopole Moments (Debye-Ang^2)
       XXX       0.0000    XXY      11.8542    XYY       0.0000
       YYY      35.9167    XXZ      11.7570    XYZ      -0.0000
       YYZ      11.6919    XZZ       0.0000    YZZ      12.6347
       ZZZ      33.8318
    Hexadecapole Moments (Debye-Ang^3)
      XXXX     -34.7664   XXXY       0.0000   XXYY     -55.4585
      XYYY       0.0000   YYYY    -282.4595   XXXZ      -0.0000
      XXYZ     -11.4562   XYYZ       0.0000   YYYZ     -24.0886
      XXZZ     -34.3141   XYZZ       0.0000   YYZZ     -77.2205
      XZZZ      -0.0000   YZZZ     -31.1037   ZZZZ    -186.0276
 -----------------------------------------------------------------
 Electrostatic potential will be computed using the SCF density
   ... ESP will be evaluated on the $plots plotting cube.
 ESP points per batch =         5000
 Created directory /Users/agilbert/Development/QChem/scratch/qchem68188/plots
  --- DONE ESP SUMMARY ---
 Total job time:  10.61s(wall), 11.13s(cpu) 
 Thu Dec 22 16:35:38 2022

        *************************************************************
        *                                                           *
        *  Thank you very much for using Q-Chem.  Have a nice day.  *
        *                                                           *
        *************************************************************


