Jobname.Temp
SP        R                             6-31G(d)            
Number of atoms                            I                7
Charge                                     I                0
Multiplicity                               I                1
Number of electrons                        I               40
Number of alpha electrons                  I               20
Number of beta electrons                   I               20
Atomic numbers                             I   N=           7
           6           1           1           1           6           8
          17
Current cartesian coordinates              R   N=          21
  0.00000000E+00  2.24409898E+00 -1.74281399E+00  0.00000000E+00  3.97606851E+00
 -6.19617471E-01  1.66845809E+00  2.17838152E+00 -2.96433164E+00 -1.66845809E+00
  2.17838152E+00 -2.96433164E+00  0.00000000E+00  0.00000000E+00  0.00000000E+00
  0.00000000E+00  0.00000000E+00  2.24840786E+00  0.00000000E+00 -2.98973382E+00
 -1.72815563E+00
Nuclear charges                            R   N=           7
  6.00000000E+00  1.00000000E+00  1.00000000E+00  1.00000000E+00  6.00000000E+00
  8.00000000E+00  1.70000000E+01
Number of basis functions                  I               70
Number of contracted shells                I               23
Number of primitive shells                 I               62
Highest angular momentum                   I                2
Largest degree of contraction              I                6
Shell types                                I   N=          23
           0          -1          -1           2           0           0
           0           0           0           0           0          -1
          -1           2           0          -1          -1           2
           0          -1          -1          -1           2
Number of primitives per shell             I   N=          23
           6           3           1           1           3           1
           3           1           3           1           6           3
           1           1           6           3           1           1
           6           6           3           1           1
Shell to atom map                          I   N=          23
           1           1           1           1           2           2
           3           3           4           4           5           5
           5           5           6           6           6           6
           7           7           7           7           7
Primitive exponents                        R   N=          62
  3.04752490E+03  4.57369510E+02  1.03948690E+02  2.92101550E+01  9.28666300E+00
  3.16392700E+00  7.86827240E+00  1.88128850E+00  5.44249300E-01  1.68714400E-01
  8.00000000E-01  1.87311370E+01  2.82539370E+00  6.40121700E-01  1.61277800E-01
  1.87311370E+01  2.82539370E+00  6.40121700E-01  1.61277800E-01  1.87311370E+01
  2.82539370E+00  6.40121700E-01  1.61277800E-01  3.04752490E+03  4.57369510E+02
  1.03948690E+02  2.92101550E+01  9.28666300E+00  3.16392700E+00  7.86827240E+00
  1.88128850E+00  5.44249300E-01  1.68714400E-01  8.00000000E-01  5.48467170E+03
  8.25234950E+02  1.88046960E+02  5.29645000E+01  1.68975700E+01  5.79963530E+00
  1.55396160E+01  3.59993360E+00  1.01376180E+00  2.70005800E-01  8.00000000E-01
  2.51801000E+04  3.78035000E+03  8.60474000E+02  2.42145000E+02  7.73349000E+01
  2.62470000E+01  4.91765000E+02  1.16984000E+02  3.74153000E+01  1.37834000E+01
  5.45215000E+00  2.22588000E+00  3.18649000E+00  1.14427000E+00  4.20377000E-01
  1.42657000E-01  7.50000000E-01
Contraction coefficients                   R   N=          62
  1.83470016E-03  1.40373012E-02  6.88426061E-02  2.32184421E-01  4.67941342E-01
  3.62312032E-01 -1.19332409E-01 -1.60854212E-01  1.14345648E+00  1.00000000E+00
  1.00000000E+00  3.34945995E-02  2.34726947E-01  8.13757318E-01  1.00000000E+00
  3.34945995E-02  2.34726947E-01  8.13757318E-01  1.00000000E+00  3.34945995E-02
  2.34726947E-01  8.13757318E-01  1.00000000E+00  1.83470016E-03  1.40373012E-02
  6.88426061E-02  2.32184421E-01  4.67941342E-01  3.62312032E-01 -1.19332409E-01
 -1.60854212E-01  1.14345648E+00  1.00000000E+00  1.00000000E+00  1.83109981E-03
  1.39500985E-02  6.84450927E-02  2.32714275E-01  4.70192950E-01  3.58520862E-01
 -1.10777504E-01 -1.48026305E-01  1.13076704E+00  1.00000000E+00  1.00000000E+00
  1.83300031E-03  1.40340024E-02  6.90970118E-02  2.37452040E-01  4.83034082E-01
  3.39856058E-01 -2.29740199E-03 -3.07140266E-02 -1.12528097E-01  4.50160390E-02
  5.89353510E-01  4.65206403E-01 -2.51831288E-01  6.15893150E-02  1.06018542E+00
  1.00000000E+00  1.00000000E+00
P(S=P) Contraction coefficients            R   N=          62
  0.00000000E+00  0.00000000E+00  0.00000000E+00  0.00000000E+00  0.00000000E+00
  0.00000000E+00  6.89990956E-02  3.16423980E-01  7.44308252E-01  1.00000000E+00
  0.00000000E+00  0.00000000E+00  0.00000000E+00  0.00000000E+00  0.00000000E+00
  0.00000000E+00  0.00000000E+00  0.00000000E+00  0.00000000E+00  0.00000000E+00
  0.00000000E+00  0.00000000E+00  0.00000000E+00  0.00000000E+00  0.00000000E+00
  0.00000000E+00  0.00000000E+00  0.00000000E+00  0.00000000E+00  6.89990956E-02
  3.16423980E-01  7.44308252E-01  1.00000000E+00  0.00000000E+00  0.00000000E+00
  0.00000000E+00  0.00000000E+00  0.00000000E+00  0.00000000E+00  0.00000000E+00
  7.08742995E-02  3.39752798E-01  7.27158595E-01  1.00000000E+00  0.00000000E+00
  0.00000000E+00  0.00000000E+00  0.00000000E+00  0.00000000E+00  0.00000000E+00
  0.00000000E+00  3.98940055E-03  3.03180042E-02  1.29880018E-01  3.27951045E-01
  4.53527062E-01  2.52154035E-01 -1.42990127E-02  3.23572288E-01  7.43507661E-01
  1.00000000E+00  0.00000000E+00
Coordinates of each shell                  R   N=          69
  0.00000000E+00  2.24409898E+00 -1.74281399E+00  0.00000000E+00  2.24409898E+00
 -1.74281399E+00  0.00000000E+00  2.24409898E+00 -1.74281399E+00  0.00000000E+00
  2.24409898E+00 -1.74281399E+00  0.00000000E+00  3.97606851E+00 -6.19617471E-01
  0.00000000E+00  3.97606851E+00 -6.19617471E-01  1.66845809E+00  2.17838152E+00
 -2.96433164E+00  1.66845809E+00  2.17838152E+00 -2.96433164E+00 -1.66845809E+00
  2.17838152E+00 -2.96433164E+00 -1.66845809E+00  2.17838152E+00 -2.96433164E+00
  0.00000000E+00  0.00000000E+00  0.00000000E+00  0.00000000E+00  0.00000000E+00
  0.00000000E+00  0.00000000E+00  0.00000000E+00  0.00000000E+00  0.00000000E+00
  0.00000000E+00  0.00000000E+00  0.00000000E+00  0.00000000E+00  2.24840786E+00
  0.00000000E+00  0.00000000E+00  2.24840786E+00  0.00000000E+00  0.00000000E+00
  2.24840786E+00  0.00000000E+00  0.00000000E+00  2.24840786E+00  0.00000000E+00
 -2.98973382E+00 -1.72815563E+00  0.00000000E+00 -2.98973382E+00 -1.72815563E+00
  0.00000000E+00 -2.98973382E+00 -1.72815563E+00  0.00000000E+00 -2.98973382E+00
 -1.72815563E+00  0.00000000E+00 -2.98973382E+00 -1.72815563E+00
Overlap Matrix                             R   N=        2485
  1.00000000E+00  2.19058872E-01  1.00000000E+00  0.00000000E+00  0.00000000E+00
  1.00000000E+00  1.08520630E-17 -4.77463947E-17  0.00000000E+00  1.00000000E+00
 -3.88927679E-17  3.02704569E-16  0.00000000E+00 -2.89300341E-32  1.00000000E+00
  1.84261053E-01  8.12273068E-01  0.00000000E+00  0.00000000E+00  0.00000000E+00
  1.00000000E+00  0.00000000E+00  0.00000000E+00  5.69754058E-01  0.00000000E+00
  0.00000000E+00  0.00000000E+00  1.00000000E+00 -2.32569778E-17  0.00000000E+00
  0.00000000E+00  5.69754058E-01  0.00000000E+00 -3.64818029E-16  0.00000000E+00
  1.00000000E+00 -2.20169413E-18  0.00000000E+00  0.00000000E+00  0.00000000E+00
  5.69754058E-01  1.82409015E-16  0.00000000E+00 -6.65460972E-32  1.00000000E+00
  7.91027073E-02  7.10235064E-01  0.00000000E+00  1.16252374E-16 -2.17093936E-16
  6.29936196E-01  0.00000000E+00 -2.29812082E-16  0.00000000E+00  1.00000000E+00
  7.91027073E-02  7.10235064E-01  0.00000000E+00  3.48757123E-16 -2.17093936E-16
  6.29936196E-01  0.00000000E+00 -6.89436245E-16  0.00000000E+00  3.33333333E-01
  1.00000000E+00  7.91027073E-02  7.10235064E-01  0.00000000E+00  1.16252374E-16
 -6.51281809E-16  6.29936196E-01  0.00000000E+00 -2.29812082E-16  0.00000000E+00
  3.33333333E-01  3.33333333E-01  1.00000000E+00  0.00000000E+00  0.00000000E+00
  2.01355019E-16  0.00000000E+00  0.00000000E+00  0.00000000E+00 -3.98046202E-16
  0.00000000E+00  0.00000000E+00  0.00000000E+00  0.00000000E+00  0.00000000E+00
  1.00000000E+00  0.00000000E+00  0.00000000E+00 -3.76017728E-16  0.00000000E+00
  0.00000000E+00  0.00000000E+00  0.00000000E+00  0.00000000E+00  0.00000000E+00
  0.00000000E+00  0.00000000E+00  0.00000000E+00  0.00000000E+00  1.00000000E+00
 -1.77947385E-31  4.44305385E-32  0.00000000E+00 -3.76017728E-16  2.01355019E-16
  0.00000000E+00  0.00000000E+00  0.00000000E+00 -3.98046202E-16  0.00000000E+00
  0.00000000E+00  0.00000000E+00  0.00000000E+00  0.00000000E+00  1.00000000E+00
  3.23993511E-02  2.72193735E-01  0.00000000E+00  3.08626639E-01  2.00146920E-01
  3.76090639E-01  0.00000000E+00  4.31948615E-01  2.80122238E-01  1.16826401E-01
  3.54312663E-01  2.16704323E-01  0.00000000E+00  0.00000000E+00  2.66756261E-01
  1.00000000E+00  9.19368787E-02  4.75065813E-01  0.00000000E+00  2.22932607E-01
  1.44573634E-01  7.03455631E-01  0.00000000E+00  4.89163387E-01  3.17226490E-01
  3.50418145E-01  4.07303090E-01  3.74341845E-01  0.00000000E+00  0.00000000E+00
  6.38959707E-02  6.58292049E-01  1.00000000E+00  3.20555502E-02  2.70677758E-01
  2.95416198E-01 -1.16358950E-02 -2.16281189E-01  3.75124462E-01  4.15036458E-01
 -1.63475148E-02 -3.03858011E-01  3.34735078E-01  1.16367684E-01  2.33256274E-01
 -1.49206659E-02 -2.77336582E-01  1.09237726E-02  1.72724338E-02  1.45329945E-01
  1.00000000E+00  9.16668081E-02  4.73971906E-01  2.14242043E-01 -8.43859594E-03
 -1.56851669E-01  7.02360916E-01  4.70492416E-01 -1.85318219E-02 -3.44458630E-01
  4.02186758E-01  3.49612617E-01  3.77754718E-01 -3.59229997E-03 -6.67715638E-02
  2.63000781E-03  1.45329945E-01  3.95183540E-01  6.58292049E-01  1.00000000E+00
  3.20555502E-02  2.70677758E-01 -2.95416198E-01 -1.16358950E-02 -2.16281189E-01
  3.75124462E-01 -4.15036458E-01 -1.63475148E-02 -3.03858011E-01  3.34735078E-01
  1.16367684E-01  2.33256274E-01  1.49206659E-02  2.77336582E-01  1.09237726E-02
  1.72724338E-02  1.45329945E-01  1.95531522E-02  1.52705756E-01  1.00000000E+00
  9.16668081E-02  4.73971906E-01 -2.14242043E-01 -8.43859594E-03 -1.56851669E-01
  7.02360916E-01 -4.70492416E-01 -1.85318219E-02 -3.44458630E-01  4.02186758E-01
  3.49612617E-01  3.77754718E-01  3.59229997E-03  6.67715638E-02  2.63000781E-03
  1.45329945E-01  3.95183540E-01  1.52705756E-01  4.07418271E-01  6.58292049E-01
  1.00000000E+00  3.74246661E-07  8.96106766E-03  0.00000000E+00 -1.71871122E-02
  1.33478691E-02  4.95469676E-02  0.00000000E+00 -8.80581338E-02  6.83877799E-02
  3.97367257E-04  1.39199587E-02  8.55338163E-03  0.00000000E+00  0.00000000E+00
 -1.81898694E-02  4.37316342E-05  1.43418049E-02  4.08771883E-05  1.40691250E-02
  4.08771883E-05  1.40691250E-02  1.00000000E+00  8.96106766E-03  1.34500372E-01
  0.00000000E+00 -1.60175651E-01  1.24395746E-01  2.93209314E-01  0.00000000E+00
 -4.05362925E-01  3.14813287E-01  5.53902767E-02  1.71428871E-01  1.25377782E-01
  0.00000000E+00  0.00000000E+00 -1.56088934E-01  7.96249945E-03  1.10259399E-01
  7.67790576E-03  1.08603167E-01  7.67790576E-03  1.08603167E-01  2.19058872E-01
  1.00000000E+00  0.00000000E+00  0.00000000E+00  7.18237970E-02  0.00000000E+00
  0.00000000E+00  0.00000000E+00  1.96404472E-01  0.00000000E+00  0.00000000E+00
  0.00000000E+00  0.00000000E+00  0.00000000E+00 -9.23967213E-02  7.17572174E-02
  0.00000000E+00  0.00000000E+00  0.00000000E+00  6.83903579E-03  4.65012016E-02
 -6.83903579E-03 -4.65012016E-02  0.00000000E+00  0.00000000E+00  1.00000000E+00
  1.71871122E-02  1.60175651E-01  0.00000000E+00 -1.41038410E-01  1.65313222E-01
  1.81037881E-01  0.00000000E+00 -6.39839574E-02  2.02223075E-01  7.36346173E-02
  1.52005831E-01  1.85252747E-01  0.00000000E+00  0.00000000E+00 -1.77177999E-01
  1.69125413E-02  1.12559683E-01  8.92921988E-03  6.07131570E-02  8.92921988E-03
  6.07131570E-02  0.00000000E+00  0.00000000E+00  0.00000000E+00  1.00000000E+00
 -1.33478691E-02 -1.24395746E-01  0.00000000E+00  1.65313222E-01 -5.65618925E-02
 -1.40597787E-01  0.00000000E+00  2.02223075E-01  3.93538218E-02 -5.71861768E-02
 -2.00908991E-01 -6.10130423E-02  0.00000000E+00  0.00000000E+00  1.00931550E-01
 -2.63559495E-03 -1.75409317E-02 -1.21508417E-02 -8.26181872E-02 -1.21508417E-02
 -8.26181872E-02  0.00000000E+00  0.00000000E+00  0.00000000E+00  0.00000000E+00
  1.00000000E+00  4.95469676E-02  2.93209314E-01  0.00000000E+00 -1.81037881E-01
  1.40597787E-01  5.06086436E-01  0.00000000E+00 -4.66490477E-01  3.62286216E-01
  2.04537200E-01  2.65070572E-01  2.41047291E-01  0.00000000E+00  0.00000000E+00
 -8.14262665E-02  7.43609878E-02  2.63001035E-01  7.31285407E-02  2.60340392E-01
  7.31285407E-02  2.60340392E-01  1.84261053E-01  8.12273068E-01  0.00000000E+00
  0.00000000E+00  0.00000000E+00  1.00000000E+00  0.00000000E+00  0.00000000E+00
  1.96404472E-01  0.00000000E+00  0.00000000E+00  0.00000000E+00  5.06086436E-01
  0.00000000E+00  0.00000000E+00  0.00000000E+00  0.00000000E+00  0.00000000E+00
 -1.13746334E-01  8.83377712E-02  0.00000000E+00  0.00000000E+00  0.00000000E+00
  8.05159134E-02  1.74394926E-01 -8.05159134E-02 -1.74394926E-01  0.00000000E+00
  0.00000000E+00  5.69754058E-01  0.00000000E+00  0.00000000E+00  0.00000000E+00
  1.00000000E+00  8.80581338E-02  4.05362925E-01  0.00000000E+00 -6.39839574E-02
  2.02223075E-01  4.66490477E-01  0.00000000E+00  7.60939497E-02  3.33941117E-01
  3.11397138E-01  2.72213063E-01  3.66981834E-01  0.00000000E+00  0.00000000E+00
 -3.56294407E-02  1.95118103E-01  4.19844341E-01  1.05123634E-01  2.27694472E-01
  1.05123634E-01  2.27694472E-01  0.00000000E+00  0.00000000E+00  0.00000000E+00
  5.69754058E-01  0.00000000E+00  0.00000000E+00  0.00000000E+00  1.00000000E+00
 -6.83877799E-02 -3.14813287E-01  0.00000000E+00  2.02223075E-01  3.93538218E-02
 -3.62286216E-01  0.00000000E+00  3.33941117E-01  2.46740813E-01 -2.41837501E-01
 -3.13410004E-01 -1.83002061E-01  0.00000000E+00  0.00000000E+00 -1.74708166E-02
 -3.04065651E-02 -6.54271646E-02 -1.43051762E-01 -3.09845599E-01 -1.43051762E-01
 -3.09845599E-01  0.00000000E+00  0.00000000E+00  0.00000000E+00  0.00000000E+00
  5.69754058E-01  0.00000000E+00  0.00000000E+00  0.00000000E+00  1.00000000E+00
  3.97367257E-04  5.53902767E-02  0.00000000E+00 -7.36346173E-02  5.71861768E-02
  2.04537200E-01  0.00000000E+00 -3.11397138E-01  2.41837501E-01  3.95831271E-02
  6.63516679E-02  4.52556594E-02  0.00000000E+00  0.00000000E+00 -7.15043571E-02
  1.63449991E-03  7.06439455E-02  4.06094135E-03  7.99519463E-02  4.06094135E-03
  7.99519463E-02  7.91027073E-02  7.10235064E-01  0.00000000E+00  0.00000000E+00
  0.00000000E+00  6.29936196E-01  0.00000000E+00  0.00000000E+00  0.00000000E+00
  1.00000000E+00  1.39199587E-02  1.71428871E-01  0.00000000E+00 -1.52005831E-01
  2.00908991E-01  2.65070572E-01  0.00000000E+00 -2.72213063E-01  3.13410004E-01
  6.63516679E-02  1.47427801E-01  2.27580945E-01  0.00000000E+00  0.00000000E+00
 -2.16571266E-01  1.64528066E-02  1.31082341E-01  5.82020688E-03  8.73280359E-02
  5.82020688E-03  8.73280359E-02  7.91027073E-02  7.10235064E-01  0.00000000E+00
  0.00000000E+00  0.00000000E+00  6.29936196E-01  0.00000000E+00  0.00000000E+00
  0.00000000E+00  3.33333333E-01  1.00000000E+00  8.55338163E-03  1.25377782E-01
  0.00000000E+00 -1.85252747E-01  6.10130423E-02  2.41047291E-01  0.00000000E+00
 -3.66981834E-01  1.83002061E-01  4.52556594E-02  2.27580945E-01  5.33669295E-02
  0.00000000E+00  0.00000000E+00 -1.02245544E-01  1.99436372E-03  7.21116970E-02
  9.44522042E-03  1.02526665E-01  9.44522042E-03  1.02526665E-01  7.91027073E-02
  7.10235064E-01  0.00000000E+00  0.00000000E+00  0.00000000E+00  6.29936196E-01
  0.00000000E+00  0.00000000E+00  0.00000000E+00  3.33333333E-01  3.33333333E-01
  1.00000000E+00  0.00000000E+00  0.00000000E+00  9.23967213E-02  0.00000000E+00
  0.00000000E+00  0.00000000E+00  1.13746334E-01  0.00000000E+00  0.00000000E+00
  0.00000000E+00  0.00000000E+00  0.00000000E+00 -1.19888750E-01  1.23849179E-01
  0.00000000E+00  0.00000000E+00  0.00000000E+00  5.64588754E-03  2.36715676E-02
 -5.64588754E-03 -2.36715676E-02  0.00000000E+00  0.00000000E+00  0.00000000E+00
  0.00000000E+00  0.00000000E+00  0.00000000E+00  0.00000000E+00  0.00000000E+00
  0.00000000E+00  0.00000000E+00  0.00000000E+00  0.00000000E+00  1.00000000E+00
  0.00000000E+00  0.00000000E+00 -7.17572174E-02  0.00000000E+00  0.00000000E+00
  0.00000000E+00 -8.83377712E-02  0.00000000E+00  0.00000000E+00  0.00000000E+00
  0.00000000E+00  0.00000000E+00  1.23849179E-01 -5.66007240E-02  0.00000000E+00
  0.00000000E+00  0.00000000E+00 -7.68289801E-03 -3.22121612E-02  7.68289801E-03
  3.22121612E-02  0.00000000E+00  0.00000000E+00  0.00000000E+00  0.00000000E+00
  0.00000000E+00  0.00000000E+00  0.00000000E+00  0.00000000E+00  0.00000000E+00
  0.00000000E+00  0.00000000E+00  0.00000000E+00  0.00000000E+00  1.00000000E+00
 -1.81898694E-02 -1.56088934E-01  0.00000000E+00  1.77177999E-01 -1.00931550E-01
 -8.14262665E-02  0.00000000E+00  3.56294407E-02  1.74708166E-02 -7.15043571E-02
 -2.16571266E-01 -1.02245544E-01  0.00000000E+00  0.00000000E+00  1.71431378E-01
 -3.99971459E-03 -1.63133574E-02 -1.00309880E-02 -4.20570207E-02 -1.00309880E-02
 -4.20570207E-02  0.00000000E+00  0.00000000E+00  0.00000000E+00  0.00000000E+00
  0.00000000E+00  0.00000000E+00  0.00000000E+00  0.00000000E+00  0.00000000E+00
  0.00000000E+00  0.00000000E+00  0.00000000E+00  0.00000000E+00  0.00000000E+00
  1.00000000E+00  2.78144848E-20  7.14126434E-06  0.00000000E+00 -1.43306356E-05
  2.54876217E-05  3.73656424E-03  0.00000000E+00 -6.74950169E-03  1.20042649E-02
  1.12669057E-08  6.87460771E-07  2.15020860E-06  0.00000000E+00  0.00000000E+00
 -2.08303091E-06  1.67099689E-07  2.58608281E-03  3.27650338E-10  4.78623328E-04
  3.27650338E-10  4.78623328E-04  4.04693010E-06  2.32779663E-02  0.00000000E+00
  0.00000000E+00  4.76384661E-02  5.18682418E-02  0.00000000E+00  0.00000000E+00
  9.38966216E-02  9.04601729E-04  9.04601729E-04  6.77216947E-02  0.00000000E+00
  0.00000000E+00  0.00000000E+00  1.00000000E+00  3.44585506E-08  7.12685616E-04
  0.00000000E+00 -9.97931923E-04  1.77486275E-03  3.02252146E-02  0.00000000E+00
 -4.74521767E-02  8.43956376E-02  4.83284474E-05  3.23554094E-04  9.18924355E-04
  0.00000000E+00  0.00000000E+00 -8.47838997E-04  7.08331591E-05  2.16311210E-02
  1.07974168E-06  4.94461425E-03  1.07974168E-06  4.94461425E-03  9.53879372E-03
  1.83657965E-01  0.00000000E+00  0.00000000E+00  2.88187793E-01  2.96514575E-01
  0.00000000E+00  0.00000000E+00  4.65298519E-01  5.86343592E-02  5.86343592E-02
  3.70583683E-01  0.00000000E+00  0.00000000E+00  0.00000000E+00  2.33689906E-01
  1.00000000E+00  0.00000000E+00  0.00000000E+00  2.91536188E-04  0.00000000E+00
  0.00000000E+00  0.00000000E+00  1.56557731E-02  0.00000000E+00  0.00000000E+00
  0.00000000E+00  0.00000000E+00  0.00000000E+00 -1.36670412E-04  2.43073920E-04
  0.00000000E+00  0.00000000E+00  0.00000000E+00  9.04355222E-07  1.64700112E-03
 -9.04355222E-07 -1.64700112E-03  0.00000000E+00  0.00000000E+00  9.68629154E-02
  0.00000000E+00  0.00000000E+00  0.00000000E+00  1.60361847E-01  0.00000000E+00
  0.00000000E+00  0.00000000E+00  0.00000000E+00  0.00000000E+00  0.00000000E+00
  1.89616132E-01  0.00000000E+00  0.00000000E+00  0.00000000E+00  1.00000000E+00
  7.63679467E-08  7.40636340E-04  0.00000000E+00 -7.54677292E-04  1.86073348E-03
  1.44308729E-02  0.00000000E+00 -7.37329343E-03  4.09581370E-02  6.20573892E-05
  2.60386731E-04  1.18861088E-03  0.00000000E+00  0.00000000E+00 -8.54032063E-04
  1.42305870E-04  1.75318945E-02  1.18074929E-06  2.15036675E-03  1.18074929E-06
  2.15036675E-03  0.00000000E+00  0.00000000E+00  0.00000000E+00  9.68629154E-02
  0.00000000E+00  0.00000000E+00  0.00000000E+00  1.60361847E-01  0.00000000E+00
  0.00000000E+00  0.00000000E+00  0.00000000E+00  0.00000000E+00  0.00000000E+00
  1.89616132E-01  0.00000000E+00  0.00000000E+00  0.00000000E+00  1.00000000E+00
 -1.35823518E-07 -1.31725203E-03  0.00000000E+00  1.86073348E-03 -3.01785443E-03
 -2.56658979E-02  0.00000000E+00  4.09581370E-02 -5.71899493E-02 -1.10371606E-04
 -7.43786040E-04 -1.83331549E-03  0.00000000E+00  0.00000000E+00  1.81457746E-03
 -1.02648342E-04 -1.26461397E-02 -2.82546395E-06 -5.14570179E-03 -2.82546395E-06
 -5.14570179E-03 -2.24385412E-02 -2.13619036E-01  0.00000000E+00  0.00000000E+00
 -2.86030380E-01 -1.48099032E-01  0.00000000E+00  0.00000000E+00 -7.70527865E-02
 -7.90980373E-02 -7.90980373E-02 -3.82231903E-01  0.00000000E+00  0.00000000E+00
  0.00000000E+00 -3.37610576E-16 -3.46152253E-16  0.00000000E+00  0.00000000E+00
  1.00000000E+00  1.22070871E-03  2.30324858E-02  0.00000000E+00 -1.79363976E-02
  3.19006169E-02  1.08822164E-01  0.00000000E+00 -1.23467001E-01  2.19591113E-01
  1.01477190E-02  1.71114582E-02  3.21754731E-02  0.00000000E+00  0.00000000E+00
 -2.14519605E-02  7.67512882E-03  8.40797683E-02  9.95965045E-04  2.86379186E-02
  9.95965045E-04  2.86379186E-02  6.99862137E-02  3.86408028E-01  0.00000000E+00
  0.00000000E+00  3.42115541E-01  5.67793493E-01  0.00000000E+00  0.00000000E+00
  6.45441730E-01  2.51926812E-01  2.51926812E-01  4.25472821E-01  0.00000000E+00
  0.00000000E+00  0.00000000E+00  1.67279760E-01  7.63640773E-01  0.00000000E+00
  0.00000000E+00  0.00000000E+00  1.00000000E+00  0.00000000E+00  0.00000000E+00
  1.53817825E-02  0.00000000E+00  0.00000000E+00  0.00000000E+00  1.05882051E-01
  0.00000000E+00  0.00000000E+00  0.00000000E+00  0.00000000E+00  0.00000000E+00
 -1.03436680E-02  1.83966367E-02  0.00000000E+00  0.00000000E+00  0.00000000E+00
  1.22177010E-03  1.85688472E-02 -1.22177010E-03 -1.85688472E-02  0.00000000E+00
  0.00000000E+00  2.92827029E-01  0.00000000E+00  0.00000000E+00  0.00000000E+00
  5.52453079E-01  0.00000000E+00  0.00000000E+00  0.00000000E+00  0.00000000E+00
  0.00000000E+00  0.00000000E+00  2.57284496E-01  0.00000000E+00  0.00000000E+00
  0.00000000E+00  5.01520641E-01  0.00000000E+00  0.00000000E+00  0.00000000E+00
  1.00000000E+00  2.67882170E-03  3.55335051E-02  0.00000000E+00 -1.30446194E-02
  5.05575188E-02  9.75978902E-02  0.00000000E+00 -4.85016020E-03  1.96941768E-01
  1.76941962E-02  1.78927676E-02  5.61031632E-02  0.00000000E+00  0.00000000E+00
 -1.90083405E-02  2.25436828E-02  1.29919265E-01  1.59517426E-03  2.42439613E-02
  1.59517426E-03  2.42439613E-02  0.00000000E+00  0.00000000E+00  0.00000000E+00
  2.92827029E-01  0.00000000E+00  0.00000000E+00  0.00000000E+00  5.52453079E-01
  0.00000000E+00  0.00000000E+00  0.00000000E+00  0.00000000E+00  0.00000000E+00
  0.00000000E+00  2.57284496E-01  0.00000000E+00  0.00000000E+00  0.00000000E+00
  5.01520641E-01  0.00000000E+00  0.00000000E+00  0.00000000E+00  1.00000000E+00
 -4.76439399E-03 -6.31977927E-02  0.00000000E+00  5.05575188E-02 -7.45368332E-02
 -1.73581841E-01  0.00000000E+00  1.96941768E-01 -2.44386941E-01 -3.14698519E-02
 -5.30656255E-02 -7.85391647E-02  0.00000000E+00  0.00000000E+00  5.61826143E-02
 -1.62612524E-02 -9.37136123E-02 -3.81715865E-03 -5.80143808E-02 -3.81715865E-03
 -5.80143808E-02 -1.54382655E-01 -5.86066818E-01  0.00000000E+00  0.00000000E+00
 -2.61930738E-01 -5.10207184E-01  0.00000000E+00  0.00000000E+00 -2.75271635E-02
 -4.40118763E-01 -4.40118763E-01 -4.46218901E-01  0.00000000E+00  0.00000000E+00
  0.00000000E+00  1.40468371E-21  0.00000000E+00  0.00000000E+00  0.00000000E+00
  5.01520641E-01  0.00000000E+00  0.00000000E+00  0.00000000E+00  1.00000000E+00
  9.66084883E-08  8.58811905E-04  0.00000000E+00 -1.10341305E-03  1.96246525E-03
  3.39346768E-02  0.00000000E+00 -5.16637622E-02  9.18861148E-02  2.27961718E-04
  3.82123428E-04  1.04435961E-03  0.00000000E+00  0.00000000E+00 -9.43059640E-04
  1.00449559E-04  2.46592189E-02  5.84628468E-06  6.77844358E-03  5.84628468E-06
  6.77844358E-03  2.84426824E-03  1.45668444E-01  0.00000000E+00  0.00000000E+00
  2.01418124E-01  3.11455190E-01  0.00000000E+00  0.00000000E+00  4.75084619E-01
  1.32372525E-01  4.41241751E-02  2.22574268E-01  0.00000000E+00  0.00000000E+00
  0.00000000E+00  3.35315380E-02  5.47065748E-01  0.00000000E+00  0.00000000E+00
  8.14400261E-17  6.99014733E-01  0.00000000E+00  0.00000000E+00  0.00000000E+00
  1.00000000E+00  2.78749552E-06  2.76057708E-03  0.00000000E+00 -2.06151303E-03
  6.34476262E-03  4.39777419E-02  0.00000000E+00 -4.51627495E-02  1.19080075E-01
  3.82123428E-04  8.49045979E-04  5.25185912E-03  0.00000000E+00  0.00000000E+00
 -2.85632413E-03  1.00497604E-03  4.57560534E-02  8.37175504E-06  7.40379931E-03
  8.37175504E-06  7.40379931E-03  2.84426824E-03  1.45668444E-01  0.00000000E+00
  0.00000000E+00  2.01418124E-01  3.11455190E-01  0.00000000E+00  0.00000000E+00
  4.75084619E-01  4.41241751E-02  1.32372525E-01  2.22574268E-01  0.00000000E+00
  0.00000000E+00  0.00000000E+00  3.35315380E-02  5.47065748E-01  0.00000000E+00
  0.00000000E+00  8.14400261E-17  6.99014733E-01  0.00000000E+00  0.00000000E+00
  0.00000000E+00  3.33333333E-01  1.00000000E+00  8.60844329E-06  6.87449031E-03
  0.00000000E+00 -8.89750821E-03  1.31463050E-02  6.57029785E-02  0.00000000E+00
 -1.00029332E-01  1.39149983E-01  1.04435961E-03  5.25185912E-03  1.06320398E-02
  0.00000000E+00  0.00000000E+00 -1.10751807E-02  5.71079481E-04  3.56360137E-02
  3.72459818E-05  1.45536211E-02  3.72459818E-05  1.45536211E-02  1.08064016E-01
  4.28640773E-01  0.00000000E+00  0.00000000E+00  4.61030310E-01  4.03985561E-01
  0.00000000E+00  0.00000000E+00  4.15843695E-01  2.22574268E-01  2.22574268E-01
  4.97172757E-01  0.00000000E+00  0.00000000E+00  0.00000000E+00  3.35315380E-02
  5.47065748E-01  0.00000000E+00  0.00000000E+00  2.44320078E-16  6.99014733E-01
  0.00000000E+00  0.00000000E+00  0.00000000E+00  3.33333333E-01  3.33333333E-01
  1.00000000E+00  0.00000000E+00  0.00000000E+00  1.30413431E-03  0.00000000E+00
  0.00000000E+00  0.00000000E+00  1.88716043E-02  0.00000000E+00  0.00000000E+00
  0.00000000E+00  0.00000000E+00  0.00000000E+00 -6.90446849E-04  1.63342721E-03
  0.00000000E+00  0.00000000E+00  0.00000000E+00  8.10481503E-06  2.00691031E-03
 -8.10481503E-06 -2.00691031E-03  0.00000000E+00  0.00000000E+00  0.00000000E+00
  0.00000000E+00  0.00000000E+00  0.00000000E+00  0.00000000E+00  0.00000000E+00
  0.00000000E+00  0.00000000E+00  0.00000000E+00  0.00000000E+00  1.32372525E-01
  0.00000000E+00  0.00000000E+00  0.00000000E+00  0.00000000E+00  0.00000000E+00
  0.00000000E+00  0.00000000E+00  0.00000000E+00  0.00000000E+00  0.00000000E+00
  0.00000000E+00  0.00000000E+00  0.00000000E+00  0.00000000E+00  1.00000000E+00
  0.00000000E+00  0.00000000E+00 -2.31945623E-03  0.00000000E+00  0.00000000E+00
  0.00000000E+00 -3.35639203E-02  0.00000000E+00  0.00000000E+00  0.00000000E+00
  0.00000000E+00  0.00000000E+00  1.63342721E-03 -2.67715541E-03  0.00000000E+00
  0.00000000E+00  0.00000000E+00 -1.93943481E-05 -4.80241893E-03  1.93943481E-05
  4.80241893E-03  0.00000000E+00  0.00000000E+00 -2.68631584E-01  0.00000000E+00
  0.00000000E+00  0.00000000E+00 -1.73537670E-01  0.00000000E+00  0.00000000E+00
  0.00000000E+00  0.00000000E+00  0.00000000E+00  0.00000000E+00 -4.02977753E-01
  0.00000000E+00  0.00000000E+00  0.00000000E+00  1.41058263E-16  0.00000000E+00
  0.00000000E+00  0.00000000E+00  0.00000000E+00  0.00000000E+00  0.00000000E+00
  0.00000000E+00  0.00000000E+00  0.00000000E+00  0.00000000E+00  1.00000000E+00
 -8.28934001E-06 -5.85843180E-03  0.00000000E+00  5.27090547E-03 -1.21956345E-02
 -3.09378953E-02  0.00000000E+00  1.35373996E-02 -6.49000202E-02 -9.43059640E-04
 -2.85632413E-03 -1.10751807E-02  0.00000000E+00  0.00000000E+00  8.10852597E-03
 -1.13008481E-03 -2.63576719E-02 -2.53217564E-05 -6.27016087E-03 -2.53217564E-05
 -6.27016087E-03  0.00000000E+00  0.00000000E+00  0.00000000E+00 -2.68631584E-01
  0.00000000E+00  0.00000000E+00  0.00000000E+00 -1.73537670E-01  0.00000000E+00
  0.00000000E+00  0.00000000E+00  0.00000000E+00  0.00000000E+00  0.00000000E+00
 -4.02977753E-01  0.00000000E+00  0.00000000E+00  0.00000000E+00  1.41058263E-16
  0.00000000E+00  0.00000000E+00  0.00000000E+00  0.00000000E+00  0.00000000E+00
  0.00000000E+00  0.00000000E+00  0.00000000E+00  0.00000000E+00  0.00000000E+00
  1.00000000E+00  1.54289799E-35  4.34526291E-08  0.00000000E+00 -2.15202113E-07
  6.02715163E-10  3.87360325E-04  0.00000000E+00 -1.65810692E-03  4.64384931E-06
  1.53796905E-12  2.84871236E-09  1.56030195E-12  0.00000000E+00  0.00000000E+00
 -1.38114820E-11  2.15798330E-15  1.26446797E-05  2.79628833E-10  2.55990699E-04
  2.79628833E-10  2.55990699E-04  1.51399742E-16  1.74183054E-04  0.00000000E+00
 -4.92987538E-04 -2.84961551E-04  5.20573606E-03  0.00000000E+00 -1.27291110E-02
 -7.35780712E-03  2.61910401E-07  1.68189677E-04  5.63697004E-05  0.00000000E+00
  0.00000000E+00  1.68125452E-04  7.16242473E-53  4.10346688E-12  0.00000000E+00
 -1.54176494E-11 -2.05065954E-11  7.17676336E-05  0.00000000E+00 -2.21400856E-04
 -2.94479246E-04  1.20254135E-11  7.34641523E-09  1.29872470E-08  0.00000000E+00
  0.00000000E+00  1.68966268E-08  1.00000000E+00  4.69903408E-17  2.74390359E-06
  0.00000000E+00 -1.12845447E-05  3.16045511E-08  3.63441009E-03  0.00000000E+00
 -1.47507162E-02  4.13122353E-05  1.19732227E-08  1.12691356E-06  1.19819682E-08
  0.00000000E+00  0.00000000E+00 -5.40851255E-09  5.31251825E-12  1.39735639E-04
  6.21388489E-08  2.43196466E-03  6.21388489E-08  2.43196466E-03  2.82485792E-08
  2.84633306E-03  0.00000000E+00 -6.81156749E-03 -3.93728987E-03  4.27401115E-02
  0.00000000E+00 -9.91891209E-02 -5.73342805E-02  1.17045396E-04  4.18523165E-03
  1.47630209E-03  0.00000000E+00  0.00000000E+00  4.07297534E-03  7.23378458E-19
  1.55634028E-08  0.00000000E+00 -4.15618346E-08 -5.52802637E-08  8.64683288E-04