Jobname.Temp
SP        U                             6-31+G(d)           
Number of atoms                            I                4
Charge                                     I                0
Multiplicity                               I                1
Number of electrons                        I               16
Number of alpha electrons                  I                8
Number of beta electrons                   I                8
Atomic numbers                             I   N=           4
           1           6           1           8
Current cartesian coordinates              R   N=          12
 -1.78552190E+00 -1.09331684E-16  2.14788874E+00  0.00000000E+00  0.00000000E+00
  1.00852335E+00  1.78552190E+00  1.09331684E-16  2.14788874E+00 -1.11022302E-16
  0.00000000E+00 -1.29336470E+00
Nuclear charges                            R   N=           4
  1.00000000E+00  6.00000000E+00  1.00000000E+00  8.00000000E+00
Number of basis functions                  I               42
Number of contracted shells                I               14
Number of primitive shells                 I               32
Highest angular momentum                   I                2
Largest degree of contraction              I                6
Shell types                                I   N=          14
           0           0           0          -1          -1          -1
           2           0           0           0          -1          -1
          -1           2
Number of primitives per shell             I   N=          14
           3           1           6           3           1           1
           1           3           1           6           3           1
           1           1
Shell to atom map                          I   N=          14
           1           1           2           2           2           2
           2           3           3           4           4           4
           4           4
Primitive exponents                        R   N=          32
  1.87311370E+01  2.82539370E+00  6.40121700E-01  1.61277800E-01  3.04752490E+03
  4.57369510E+02  1.03948690E+02  2.92101550E+01  9.28666300E+00  3.16392700E+00
  7.86827240E+00  1.88128850E+00  5.44249300E-01  1.68714400E-01  4.38000000E-02
  8.00000000E-01  1.87311370E+01  2.82539370E+00  6.40121700E-01  1.61277800E-01
  5.48467170E+03  8.25234950E+02  1.88046960E+02  5.29645000E+01  1.68975700E+01
  5.79963530E+00  1.55396160E+01  3.59993360E+00  1.01376180E+00  2.70005800E-01
  8.45000000E-02  8.00000000E-01
Contraction coefficients                   R   N=          32
  3.34945995E-02  2.34726947E-01  8.13757318E-01  1.00000000E+00  1.83470016E-03
  1.40373012E-02  6.88426061E-02  2.32184421E-01  4.67941342E-01  3.62312032E-01
 -1.19332409E-01 -1.60854212E-01  1.14345648E+00  1.00000000E+00  1.00000000E+00
  1.00000000E+00  3.34945995E-02  2.34726947E-01  8.13757318E-01  1.00000000E+00
  1.83109981E-03  1.39500985E-02  6.84450927E-02  2.32714275E-01  4.70192950E-01
  3.58520862E-01 -1.10777504E-01 -1.48026305E-01  1.13076704E+00  1.00000000E+00
  1.00000000E+00  1.00000000E+00
P(S=P) Contraction coefficients            R   N=          32
  0.00000000E+00  0.00000000E+00  0.00000000E+00  0.00000000E+00  0.00000000E+00
  0.00000000E+00  0.00000000E+00  0.00000000E+00  0.00000000E+00  0.00000000E+00
  6.89990956E-02  3.16423980E-01  7.44308252E-01  1.00000000E+00  1.00000000E+00
  0.00000000E+00  0.00000000E+00  0.00000000E+00  0.00000000E+00  0.00000000E+00
  0.00000000E+00  0.00000000E+00  0.00000000E+00  0.00000000E+00  0.00000000E+00
  0.00000000E+00  7.08742995E-02  3.39752798E-01  7.27158595E-01  1.00000000E+00
  1.00000000E+00  0.00000000E+00
Coordinates of each shell                  R   N=          42
 -1.78552190E+00 -1.09331684E-16  2.14788874E+00 -1.78552190E+00 -1.09331684E-16
  2.14788874E+00  0.00000000E+00  0.00000000E+00  1.00852335E+00  0.00000000E+00
  0.00000000E+00  1.00852335E+00  0.00000000E+00  0.00000000E+00  1.00852335E+00
  0.00000000E+00  0.00000000E+00  1.00852335E+00  0.00000000E+00  0.00000000E+00
  1.00852335E+00  1.78552190E+00  1.09331684E-16  2.14788874E+00  1.78552190E+00
  1.09331684E-16  2.14788874E+00 -1.11022302E-16  0.00000000E+00 -1.29336470E+00
 -1.11022302E-16  0.00000000E+00 -1.29336470E+00 -1.11022302E-16  0.00000000E+00
 -1.29336470E+00 -1.11022302E-16  0.00000000E+00 -1.29336470E+00 -1.11022302E-16
  0.00000000E+00 -1.29336470E+00
Overlap Matrix                             R   N=         903
  1.00000000E+00  6.58292049E-01  1.00000000E+00  2.85372413E-02  8.87713920E-02
  1.00000000E+00  2.54671450E-01  4.62199033E-01  2.19058872E-01  1.00000000E+00
 -2.94921335E-01 -2.23339576E-01  0.00000000E+00  0.00000000E+00  1.00000000E+00
 -1.80587234E-17 -1.36756049E-17  0.00000000E+00  0.00000000E+00  0.00000000E+00
  1.00000000E+00  1.88193246E-01  1.42515969E-01  0.00000000E+00  0.00000000E+00
  0.00000000E+00  0.00000000E+00  1.00000000E+00  3.64743868E-01  6.90527665E-01
  1.84261053E-01  8.12273068E-01  0.00000000E+00  0.00000000E+00  0.00000000E+00
  1.00000000E+00 -4.31825081E-01 -4.95020577E-01  0.00000000E+00  0.00000000E+00
  5.69754058E-01  0.00000000E+00  0.00000000E+00  0.00000000E+00  1.00000000E+00
 -2.64416602E-17 -3.03112682E-17  0.00000000E+00  0.00000000E+00  0.00000000E+00
  5.69754058E-01  0.00000000E+00  0.00000000E+00  0.00000000E+00  1.00000000E+00
  2.75553356E-01  3.15879247E-01  0.00000000E+00  0.00000000E+00  0.00000000E+00
  0.00000000E+00  5.69754058E-01  0.00000000E+00  0.00000000E+00  0.00000000E+00
  1.00000000E+00  2.56298493E-01  6.35831482E-01  6.97718343E-02  4.02090587E-01
  0.00000000E+00  0.00000000E+00  0.00000000E+00  7.27666104E-01  0.00000000E+00
  0.00000000E+00  0.00000000E+00  1.00000000E+00 -1.80175369E-01 -3.73706112E-01
  0.00000000E+00  0.00000000E+00  1.64678564E-01  0.00000000E+00  0.00000000E+00
  0.00000000E+00  5.88690339E-01  0.00000000E+00  0.00000000E+00  0.00000000E+00
  1.00000000E+00 -1.10325594E-17 -2.28828997E-17  0.00000000E+00  0.00000000E+00
  0.00000000E+00  1.64678564E-01  0.00000000E+00  0.00000000E+00  0.00000000E+00
  5.88690339E-01  0.00000000E+00  0.00000000E+00  0.00000000E+00  1.00000000E+00
  1.14972311E-01  2.38466865E-01  0.00000000E+00  0.00000000E+00  0.00000000E+00
  0.00000000E+00  1.64678564E-01  0.00000000E+00  0.00000000E+00  0.00000000E+00
  5.88690339E-01  0.00000000E+00  0.00000000E+00  0.00000000E+00  1.00000000E+00
  3.38125471E-01  3.98655047E-01  7.91027073E-02  7.10235064E-01  0.00000000E+00
  0.00000000E+00  0.00000000E+00  6.29936196E-01  0.00000000E+00  0.00000000E+00
  0.00000000E+00  3.23540475E-01  0.00000000E+00  0.00000000E+00  0.00000000E+00
  1.00000000E+00  1.07672882E-01  3.39996065E-01  7.91027073E-02  7.10235064E-01
  0.00000000E+00  0.00000000E+00  0.00000000E+00  6.29936196E-01  0.00000000E+00
  0.00000000E+00  0.00000000E+00  3.23540475E-01  0.00000000E+00  0.00000000E+00
  0.00000000E+00  3.33333333E-01  1.00000000E+00  2.01510565E-01  3.63881338E-01
  7.91027073E-02  7.10235064E-01  0.00000000E+00  0.00000000E+00  0.00000000E+00
  6.29936196E-01  0.00000000E+00  0.00000000E+00  0.00000000E+00  3.23540475E-01
  0.00000000E+00  0.00000000E+00  0.00000000E+00  3.33333333E-01  3.33333333E-01
  1.00000000E+00  2.44412310E-17  6.22122635E-18  0.00000000E+00  0.00000000E+00
  0.00000000E+00  0.00000000E+00  0.00000000E+00  0.00000000E+00  0.00000000E+00
  0.00000000E+00  0.00000000E+00  0.00000000E+00  0.00000000E+00  0.00000000E+00
  0.00000000E+00  0.00000000E+00  0.00000000E+00  0.00000000E+00  1.00000000E+00
 -2.54706519E-01 -6.48325327E-02  0.00000000E+00  0.00000000E+00  0.00000000E+00
  0.00000000E+00  0.00000000E+00  0.00000000E+00  0.00000000E+00  0.00000000E+00
  0.00000000E+00  0.00000000E+00  0.00000000E+00  0.00000000E+00  0.00000000E+00
  0.00000000E+00  0.00000000E+00  0.00000000E+00  0.00000000E+00  1.00000000E+00
 -1.55962762E-17 -3.96984769E-18  0.00000000E+00  0.00000000E+00  0.00000000E+00
  0.00000000E+00  0.00000000E+00  0.00000000E+00  0.00000000E+00  0.00000000E+00
  0.00000000E+00  0.00000000E+00  0.00000000E+00  0.00000000E+00  0.00000000E+00
  0.00000000E+00  0.00000000E+00  0.00000000E+00  0.00000000E+00  0.00000000E+00
  1.00000000E+00  1.15196225E-02  1.23568578E-01  2.85372413E-02  2.54671450E-01
  2.94921335E-01  1.80587234E-17  1.88193246E-01  3.64743868E-01  4.31825081E-01
  2.64416602E-17  2.75553356E-01  2.56298493E-01  1.80175369E-01  1.10325594E-17
  1.14972311E-01  3.38125471E-01  1.07672882E-01  2.01510565E-01  2.44412310E-17
  2.54706519E-01  1.55962762E-17  1.00000000E+00  1.23568578E-01  3.57601591E-01
  8.87713920E-02  4.62199033E-01  2.23339576E-01  1.36756049E-17  1.42515969E-01
  6.90527665E-01  4.95020577E-01  3.03112682E-17  3.15879247E-01  6.35831482E-01
  3.73706112E-01  2.28828997E-17  2.38466865E-01  3.98655047E-01  3.39996065E-01
  3.63881338E-01  6.22122635E-18  6.48325327E-02  3.96984769E-18  6.58292049E-01
  1.00000000E+00  3.31690962E-05  1.07443756E-02  2.44497927E-06  2.05667284E-02
 -2.07356745E-18  0.00000000E+00 -4.29924443E-02  4.98225318E-02 -4.45356281E-18
  0.00000000E+00 -9.23382311E-02  3.53276274E-02 -1.63303432E-18  0.00000000E+00
 -3.38586221E-02  7.60485229E-04  7.60485229E-04  5.93927898E-02  0.00000000E+00
  4.89805461E-18  0.00000000E+00  3.31690962E-05  1.07443756E-02  1.00000000E+00
  2.41006805E-03  7.50844359E-02  7.82673844E-03  1.69263415E-01 -1.29999063E-17
  0.00000000E+00 -2.69534394E-01  2.86349934E-01 -2.21889310E-17  0.00000000E+00
 -4.60055629E-01  2.12714886E-01 -9.45377778E-18  0.00000000E+00 -1.96010510E-01
  5.26255572E-02  5.26255572E-02  3.47332793E-01  0.00000000E+00  2.46193996E-17
  0.00000000E+00  2.41006805E-03  7.50844359E-02  2.33689906E-01  1.00000000E+00
 -2.22891201E-03 -2.78934543E-02  9.06695810E-19  9.69752627E-18  8.80949642E-02
  0.00000000E+00 -1.75089019E-17  7.05687222E-18  1.54748322E-01  0.00000000E+00
 -1.15813002E-17  1.49988242E-18  6.45520339E-02  0.00000000E+00 -1.38940327E-18
 -6.14326661E-18  3.49699080E-18  2.75344534E-17  0.00000000E+00 -1.73098471E-01
  0.00000000E+00  2.22891201E-03  2.78934543E-02  0.00000000E+00  0.00000000E+00
  1.00000000E+00 -1.36481498E-19 -1.70798147E-18  0.00000000E+00  0.00000000E+00
  0.00000000E+00  8.80949642E-02  0.00000000E+00  0.00000000E+00  0.00000000E+00
  1.54748322E-01  0.00000000E+00  0.00000000E+00  0.00000000E+00  6.45520339E-02
  0.00000000E+00  0.00000000E+00  0.00000000E+00  0.00000000E+00 -8.34870782E-18
  0.00000000E+00 -1.73098471E-01  1.36481498E-19  1.70798147E-18  0.00000000E+00
  0.00000000E+00  0.00000000E+00  1.00000000E+00  4.29580344E-03  5.37593213E-02
  1.87990359E-02  2.01064285E-01 -1.75089019E-17  0.00000000E+00 -2.74926980E-01
  1.46314114E-01 -1.15813002E-17  0.00000000E+00 -8.53733109E-02  3.10979087E-02
 -1.38940327E-18  0.00000000E+00  3.57447518E-02  7.25050839E-02  7.25050839E-02
  3.71010464E-01  0.00000000E+00  3.32853987E-17  0.00000000E+00  4.29580344E-03
  5.37593213E-02  0.00000000E+00  0.00000000E+00  0.00000000E+00  0.00000000E+00
  1.00000000E+00  4.34465666E-02  2.08705028E-01  6.57769926E-02  3.70270526E-01
 -1.61402206E-17  0.00000000E+00 -3.34644303E-01  5.53626252E-01 -3.10755224E-17
  0.00000000E+00 -6.44306345E-01  4.72568770E-01 -1.88953276E-17  0.00000000E+00
 -3.91767490E-01  2.39849784E-01  2.39849784E-01  4.13029802E-01  0.00000000E+00
  1.44671984E-17  0.00000000E+00  4.34465666E-02  2.08705028E-01  1.67279760E-01
  7.63640773E-01  0.00000000E+00  0.00000000E+00  0.00000000E+00  1.00000000E+00
 -5.76909582E-02 -1.44819246E-01  7.16428407E-18  2.77438046E-17  2.79777439E-01
  0.00000000E+00 -2.67827335E-17  2.45645022E-17  5.38668602E-01  0.00000000E+00
 -2.85879952E-17  7.61035532E-18  3.27534950E-01  0.00000000E+00 -6.30911307E-18
  6.72409659E-18  2.06904511E-17  3.56296877E-17  0.00000000E+00 -2.50776976E-01
  0.00000000E+00  5.76909582E-02  1.44819246E-01  0.00000000E+00  0.00000000E+00
  5.01520641E-01  0.00000000E+00  0.00000000E+00  0.00000000E+00  1.00000000E+00
 -3.53255236E-18 -8.86762133E-18  0.00000000E+00  0.00000000E+00  0.00000000E+00
  2.79777439E-01  0.00000000E+00  0.00000000E+00  0.00000000E+00  5.38668602E-01
  0.00000000E+00  0.00000000E+00  0.00000000E+00  3.27534950E-01  0.00000000E+00
  0.00000000E+00  0.00000000E+00  0.00000000E+00 -1.20952178E-17  0.00000000E+00
 -2.50776976E-01  3.53255236E-18  8.86762133E-18  0.00000000E+00  0.00000000E+00
  0.00000000E+00  5.01520641E-01  0.00000000E+00  0.00000000E+00  0.00000000E+00
  1.00000000E+00  1.11188336E-01  2.79111519E-01  1.48541145E-01  5.75227959E-01
 -2.67827335E-17  0.00000000E+00 -2.75524090E-01  5.09309688E-01 -2.85879952E-17
  0.00000000E+00 -5.40624368E-02  1.57789792E-01 -6.30911307E-18  0.00000000E+00
  1.96724548E-01  4.28986799E-01  4.28986799E-01  4.49158114E-01  0.00000000E+00
  1.37802992E-17  0.00000000E+00  1.11188336E-01  2.79111519E-01  0.00000000E+00
  0.00000000E+00  0.00000000E+00  0.00000000E+00  5.01520641E-01  0.00000000E+00
  0.00000000E+00  0.00000000E+00  1.00000000E+00  1.50059188E-01  4.02356298E-01
  7.26178374E-02  4.03051701E-01 -6.99022889E-18  0.00000000E+00 -1.44932361E-01
  6.79607830E-01 -2.06844027E-17  0.00000000E+00 -4.28861395E-01  7.92629303E-01
 -2.42592549E-17  0.00000000E+00 -5.02980822E-01  3.14011683E-01  3.14011683E-01
  3.40875009E-01  0.00000000E+00  2.24412188E-18  0.00000000E+00  1.50059188E-01
  4.02356298E-01  7.23158236E-02  4.09528899E-01  0.00000000E+00  0.00000000E+00
  0.00000000E+00  7.86651414E-01  0.00000000E+00  0.00000000E+00  0.00000000E+00
  1.00000000E+00 -1.38869811E-01 -2.74073013E-01  4.60116740E-18  2.23024468E-17
  2.16597187E-01  0.00000000E+00 -8.18736617E-18  2.92274352E-17  6.40920850E-01
  0.00000000E+00 -1.84437525E-17  1.74657065E-17  7.51690174E-01  0.00000000E+00
 -1.10832584E-17  1.44592547E-17  1.83318602E-17  1.99001290E-17  0.00000000E+00
 -6.95357039E-02  0.00000000E+00  1.38869811E-01  2.74073013E-01  0.00000000E+00
  0.00000000E+00  1.68056960E-01  0.00000000E+00  0.00000000E+00  0.00000000E+00
  6.70353497E-01  0.00000000E+00  0.00000000E+00  0.00000000E+00  1.00000000E+00
 -8.50332346E-18 -1.67821319E-17  0.00000000E+00  0.00000000E+00  0.00000000E+00
  2.16597187E-01  0.00000000E+00  0.00000000E+00  0.00000000E+00  6.40920850E-01
  0.00000000E+00  0.00000000E+00  0.00000000E+00  7.51690174E-01  0.00000000E+00
  0.00000000E+00  0.00000000E+00  0.00000000E+00 -3.35377472E-18  0.00000000E+00
 -6.95357039E-02  8.50332346E-18  1.67821319E-17  0.00000000E+00  0.00000000E+00
  0.00000000E+00  1.68056960E-01  0.00000000E+00  0.00000000E+00  0.00000000E+00
  6.70353497E-01  0.00000000E+00  0.00000000E+00  0.00000000E+00  1.00000000E+00
  2.67645115E-01  5.28223540E-01  9.53986005E-02  4.62409216E-01 -8.18736617E-18
  0.00000000E+00  4.68439038E-02  6.05988908E-01 -1.84437525E-17  0.00000000E+00
  2.58516121E-01  3.62126350E-01 -1.10832584E-17  0.00000000E+00  5.21894721E-01
  3.80084804E-01  3.80084804E-01  3.32307692E-01  0.00000000E+00 -6.37453418E-19
  0.00000000E+00  2.67645115E-01  5.28223540E-01  0.00000000E+00  0.00000000E+00
  0.00000000E+00  0.00000000E+00  1.68056960E-01  0.00000000E+00  0.00000000E+00
  0.00000000E+00  6.70353497E-01  0.00000000E+00  0.00000000E+00  0.00000000E+00
  1.00000000E+00  7.00548465E-03  9.68221993E-02  2.42587059E-03  1.34787272E-01
  4.85862868E-18  0.00000000E+00 -1.90024764E-01  3.01071954E-01 -1.31120150E-17
  0.00000000E+00 -4.70169879E-01  2.59638067E-01 -1.01866184E-17  0.00000000E+00
 -2.37175641E-01  1.20094608E-01  4.00315361E-02  2.09723251E-01  0.00000000E+00
 -1.41757909E-17  0.00000000E+00  7.00548465E-03  9.68221993E-02  3.35315380E-02
  5.47065748E-01  0.00000000E+00  0.00000000E+00  0.00000000E+00  6.99014733E-01
  0.00000000E+00  0.00000000E+00  0.00000000E+00  4.70781922E-01  0.00000000E+00
  0.00000000E+00  0.00000000E+00  1.00000000E+00  2.47246054E-03  8.25755677E-02
  2.42587059E-03  1.34787272E-01 -9.16507943E-18  0.00000000E+00 -1.90024764E-01
  3.01071954E-01 -2.26767511E-17  0.00000000E+00 -4.70169879E-01  2.59638067E-01
 -1.14392121E-17  0.00000000E+00 -2.37175641E-01  4.00315361E-02  1.20094608E-01
  2.09723251E-01  0.00000000E+00  1.41757909E-17  0.00000000E+00  2.47246054E-03
  8.25755677E-02  3.35315380E-02  5.47065748E-01  0.00000000E+00  0.00000000E+00
  0.00000000E+00  6.99014733E-01  0.00000000E+00  0.00000000E+00  0.00000000E+00
  4.70781922E-01  0.00000000E+00  0.00000000E+00  0.00000000E+00  3.33333333E-01
  1.00000000E+00  1.93104791E-02  1.35494997E-01  9.58366599E-02  4.11892708E-01
 -3.60205528E-17  0.00000000E+00 -4.56072995E-01  3.94823242E-01 -2.97381018E-17
  0.00000000E+00 -4.18265774E-01  2.65893761E-01 -1.17148274E-17  0.00000000E+00
 -2.16919395E-01  2.09723251E-01  2.09723251E-01  5.00026026E-01  0.00000000E+00
  4.59146905E-17  0.00000000E+00  1.93104791E-02  1.35494997E-01  3.35315380E-02
  5.47065748E-01  0.00000000E+00  0.00000000E+00  0.00000000E+00  6.99014733E-01
  0.00000000E+00  0.00000000E+00  0.00000000E+00  4.70781922E-01  0.00000000E+00
  0.00000000E+00  0.00000000E+00  3.33333333E-01  3.33333333E-01  1.00000000E+00
  4.80761312E-19  1.51096248E-18  0.00000000E+00  0.00000000E+00  0.00000000E+00
  1.21448875E-17  0.00000000E+00  0.00000000E+00  0.00000000E+00  8.28330449E-18
  0.00000000E+00  0.00000000E+00  0.00000000E+00  1.08477799E-18  0.00000000E+00
  0.00000000E+00  0.00000000E+00  0.00000000E+00  1.20094608E-01  0.00000000E+00
 -2.45531901E-17  4.80761312E-19  1.51096248E-18  0.00000000E+00  0.00000000E+00
  0.00000000E+00  0.00000000E+00  0.00000000E+00  0.00000000E+00  0.00000000E+00
  0.00000000E+00  0.00000000E+00  0.00000000E+00  0.00000000E+00  0.00000000E+00
  0.00000000E+00  0.00000000E+00  0.00000000E+00  0.00000000E+00  1.00000000E+00
 -1.51321324E-02 -4.75580786E-02  7.80339695E-18  2.31489717E-17  2.51806806E-01
  0.00000000E+00 -3.43701569E-17  7.83184171E-18  1.71742427E-01  0.00000000E+00
 -3.94731354E-18  5.22591232E-19  2.24913143E-02  0.00000000E+00  6.07398413E-19
 -1.41757909E-17  1.41757909E-17  4.59146905E-17  0.00000000E+00 -3.88980538E-01
  0.00000000E+00  1.51321324E-02  4.75580786E-02  0.00000000E+00  0.00000000E+00
  0.00000000E+00  0.00000000E+00  0.00000000E+00  0.00000000E+00  0.00000000E+00
  0.00000000E+00  0.00000000E+00  0.00000000E+00  0.00000000E+00  0.00000000E+00
  0.00000000E+00  0.00000000E+00  0.00000000E+00  0.00000000E+00  0.00000000E+00
  1.00000000E+00 -9.26575877E-19 -2.91209244E-18  0.00000000E+00  0.00000000E+00
  0.00000000E+00  2.51806806E-01  0.00000000E+00  0.00000000E+00  0.00000000E+00
  1.71742427E-01  0.00000000E+00  0.00000000E+00  0.00000000E+00  2.24913143E-02
  0.00000000E+00  0.00000000E+00  0.00000000E+00  0.00000000E+00 -2.45531901E-17
  0.00000000E+00 -3.88980538E-01  9.26575877E-19  2.91209244E-18  0.00000000E+00
  0.00000000E+00  0.00000000E+00  0.00000000E+00  0.00000000E+00  0.00000000E+00
  0.00000000E+00  0.00000000E+00  0.00000000E+00  0.00000000E+00  0.00000000E+00
  0.00000000E+00  0.00000000E+00  0.00000000E+00  0.00000000E+00  0.00000000E+00
  0.00000000E+00  0.00000000E+00  1.00000000E+00
Core Hamiltonian Matrix                    R   N=         903
 -5.43253581E+00 -3.87795903E+00 -5.31842559E+00 -6.14427557E-01 -1.91336740E+00
 -2.23648389E+01 -2.07655682E+00 -4.00330544E+00 -4.62860342E+00 -9.20357578E+00
  2.17677339E+00  1.66198404E+00  0.00000000E+00  0.00000000E+00 -8.33854505E+00
 -1.06915552E-17 -6.70674104E-18  0.00000000E+00  0.00000000E+00  0.00000000E+00
 -8.19898607E+00 -1.32282001E+00 -7.13175402E-01  1.20435999E-01  8.65347614E-01
  0.00000000E+00  0.00000000E+00 -8.88807937E+00 -2.48823142E+00 -4.73432867E+00
 -3.97730517E+00 -7.39083700E+00  0.00000000E+00  0.00000000E+00  8.43222208E-01
 -7.81830644E+00  2.55904740E+00  2.58871901E+00  0.00000000E+00  0.00000000E+00
 -4.33742659E+00  0.00000000E+00  0.00000000E+00  0.00000000E+00 -5.68032823E+00
 -1.36179380E-17 -1.06476420E-17  0.00000000E+00  0.00000000E+00  0.00000000E+00
 -4.21561707E+00  0.00000000E+00  0.00000000E+00  0.00000000E+00 -5.47801910E+00
 -1.57168141E+00 -1.20804161E+00  2.02325045E-02  6.05653122E-01  0.00000000E+00
  0.00000000E+00 -4.85895251E+00  1.08736030E+00  0.00000000E+00  0.00000000E+00
 -6.69186918E+00 -1.61242968E+00 -3.50686757E+00 -1.50805903E+00 -3.58357385E+00
  0.00000000E+00  0.00000000E+00  4.58553881E-01 -4.95879854E+00  0.00000000E+00
  0.00000000E+00  8.77899711E-01 -4.83809239E+00  1.01870465E+00  1.58799041E+00
  0.00000000E+00  0.00000000E+00 -1.23936056E+00  0.00000000E+00  0.00000000E+00
  0.00000000E+00 -2.89076875E+00  0.00000000E+00  0.00000000E+00  0.00000000E+00
 -3.32692438E+00 -2.10506703E-18 -3.69743877E-18  0.00000000E+00  0.00000000E+00
  0.00000000E+00 -1.20255527E+00  0.00000000E+00  0.00000000E+00  0.00000000E+00
 -2.80493129E+00  0.00000000E+00  0.00000000E+00  0.00000000E+00 -3.27036922E+00
 -6.28905909E-01 -8.15252338E-01  4.07761457E-03  1.74904906E-01  0.00000000E+00
  0.00000000E+00 -1.40354301E+00  4.47307196E-01  0.00000000E+00  0.00000000E+00
 -3.34877616E+00  5.70045373E-01  0.00000000E+00  0.00000000E+00 -3.65125784E+00
 -2.45361502E+00 -3.16712341E+00 -1.69503909E+00 -6.06681983E+00  0.00000000E+00
  0.00000000E+00  2.75898444E-01 -5.20355877E+00  0.00000000E+00  0.00000000E+00
  1.87419039E-01 -2.63791849E+00  0.00000000E+00  0.00000000E+00  5.24475361E-02
 -7.01766009E+00 -9.41095524E-01 -2.69457671E+00 -1.69121349E+00 -5.94778320E+00
  0.00000000E+00  0.00000000E+00  3.33280783E-01 -5.07546258E+00  0.00000000E+00
  0.00000000E+00  2.44328595E-01 -2.56750712E+00  0.00000000E+00  0.00000000E+00
  6.94645873E-02 -2.99574540E+00 -6.76220198E+00 -1.51912576E+00 -3.00827022E+00
 -1.70954704E+00 -6.52933923E+00  0.00000000E+00  0.00000000E+00  1.42932798E+00
 -5.72386704E+00  0.00000000E+00  0.00000000E+00  1.19652719E+00 -2.93139431E+00
  0.00000000E+00  0.00000000E+00  3.52501181E-01 -3.18218822E+00 -3.12228073E+00
 -8.11895088E+00  3.09525572E-17  4.83948202E-18  0.00000000E+00  0.00000000E+00
  0.00000000E+00  0.00000000E+00  0.00000000E+00  0.00000000E+00  0.00000000E+00
  0.00000000E+00  0.00000000E+00  0.00000000E+00  0.00000000E+00  0.00000000E+00
  0.00000000E+00  0.00000000E+00  0.00000000E+00  0.00000000E+00 -5.78723619E+00
  1.58466670E+00  3.36265147E-01  0.00000000E+00  0.00000000E+00  4.77870123E-01
  0.00000000E+00  0.00000000E+00  0.00000000E+00  3.24619299E-01  0.00000000E+00
  0.00000000E+00  0.00000000E+00  9.08417972E-02  0.00000000E+00  0.00000000E+00
  0.00000000E+00  0.00000000E+00  0.00000000E+00  0.00000000E+00 -6.34656465E+00
 -1.97512404E-17 -3.08813816E-18  0.00000000E+00  0.00000000E+00  0.00000000E+00
  5.77259249E-01  0.00000000E+00  0.00000000E+00  0.00000000E+00  4.23189540E-01
  0.00000000E+00  0.00000000E+00  0.00000000E+00  1.20316195E-01  0.00000000E+00
  0.00000000E+00  0.00000000E+00  0.00000000E+00  0.00000000E+00  0.00000000E+00
 -6.16684219E+00 -1.16252412E-01 -8.88367204E-01 -6.14427557E-01 -2.07655682E+00
 -2.17677339E+00  1.06915552E-17 -1.32282001E+00 -2.48823142E+00 -2.55904740E+00
  1.36179380E-17 -1.57168141E+00 -1.61242968E+00 -1.01870465E+00  2.10506703E-18
 -6.28905909E-01 -2.45361502E+00 -9.41095524E-01 -1.51912576E+00  3.09525572E-17
 -1.58466670E+00  1.97512404E-17 -5.43253581E+00 -8.88367204E-01 -2.34422156E+00
 -1.91336740E+00 -4.00330544E+00 -1.66198404E+00  6.70674104E-18 -7.13175402E-01
 -4.73432867E+00 -2.58871901E+00  1.06476420E-17 -1.20804161E+00 -3.50686757E+00
 -1.58799041E+00  3.69743877E-18 -8.15252338E-01 -3.16712341E+00 -2.69457671E+00
 -3.00827022E+00  4.83948202E-18 -3.36265147E-01  3.08813816E-18 -3.87795903E+00
 -5.31842559E+00 -1.19942382E-03 -3.68832792E-01 -1.32552396E-04 -7.09904311E-01
  6.63372277E-19  0.00000000E+00  1.47838691E+00 -1.70630210E+00 -2.39162689E-18
  0.00000000E+00  3.15591702E+00 -1.20874939E+00 -3.22899201E-19  0.00000000E+00
  1.15702515E+00 -2.82370143E-02 -2.82354686E-02 -2.04478509E+00  0.00000000E+00
 -2.68970929E-18  0.00000000E+00 -1.19942382E-03 -3.68832792E-01 -3.50634937E+01
 -3.43821119E-02 -9.06614867E-01 -1.79127248E-01 -2.12220071E+00 -4.33090112E-18
  0.00000000E+00  3.35241799E+00 -3.42600626E+00 -1.10706976E-17  0.00000000E+00
  5.38861352E+00 -2.46155565E+00 -1.80415076E-18  0.00000000E+00  2.21366695E+00
 -6.46673318E-01 -6.45542344E-01 -4.29786648E+00  0.00000000E+00  2.73048534E-17
  0.00000000E+00 -3.43821119E-02 -9.06614867E-01 -7.83892724E+00 -1.19423913E+01
  2.72764981E-02  2.77357599E-01 -2.85609789E-18  5.11565246E-18 -9.35416240E-01
  0.00000000E+00 -1.63484651E-17  3.56108133E-18 -1.50591727E+00  0.00000000E+00
 -9.24367519E-18  2.87617588E-19 -6.14608482E-01  0.00000000E+00 -3.83479625E-19
 -1.29696525E-17 -4.28952102E-18  3.93537088E-17  0.00000000E+00  1.78559771E+00
  0.00000000E+00 -2.72764981E-02 -2.77357599E-01  0.00000000E+00  0.00000000E+00
 -1.04194347E+01  3.77732506E-19 -1.84901259E-19  0.00000000E+00  0.00000000E+00
  0.00000000E+00 -9.33844585E-01  0.00000000E+00  0.00000000E+00  0.00000000E+00
 -1.50398568E+00  0.00000000E+00  0.00000000E+00  0.00000000E+00 -6.13917164E-01
  0.00000000E+00  0.00000000E+00  0.00000000E+00  0.00000000E+00 -7.51721441E-18
  0.00000000E+00  1.78319246E+00 -3.77732506E-19  1.84901259E-19  0.00000000E+00
  0.00000000E+00  0.00000000E+00 -1.04156544E+01 -5.90717019E-02 -6.39851182E-01
 -4.22266601E-01 -2.34485960E+00 -1.63484651E-17  0.00000000E+00  3.14659306E+00
 -1.77000541E+00 -9.24367519E-18  0.00000000E+00  1.18126254E+00 -5.08819244E-01
 -3.83479625E-19  0.00000000E+00 -1.97577235E-01 -8.44818540E-01 -8.42773998E-01
 -4.13576315E+00  0.00000000E+00  6.80750771E-17  0.00000000E+00 -5.90717019E-02
 -6.39851182E-01 -9.09187389E-02 -6.20287602E-01  0.00000000E+00  0.00000000E+00
 -1.06850060E+01 -3.84614181E-01 -1.85848117E+00 -1.43339146E+00 -3.82679864E+00
 -9.05614759E-18  0.00000000E+00  3.63420342E+00 -5.12383373E+00 -1.25828850E-17
  0.00000000E+00  5.81706347E+00 -3.84420266E+00 -3.27610017E-18  0.00000000E+00
  2.97235408E+00 -2.17976890E+00 -2.15738921E+00 -4.55903713E+00  0.00000000E+00
  1.41957583E-17  0.00000000E+00 -3.84614181E-01 -1.85848117E+00 -5.70943911E+00
 -8.93392728E+00  0.00000000E+00  0.00000000E+00 -6.01793528E-01 -9.30730232E+00
  4.26156563E-01  9.39945707E-01  4.19316967E-18  1.53588157E-17 -2.31004653E+00
  0.00000000E+00 -2.51854755E-17  9.94648784E-18 -3.50430847E+00  0.00000000E+00
 -1.75124376E-17  1.31949479E-18 -1.88218630E+00  0.00000000E+00 -1.56942072E-18
 -4.57514753E-18  9.12916391E-18  2.98197430E-17  0.00000000E+00  2.08620838E+00
  0.00000000E+00 -4.26156563E-01 -9.39945707E-01  0.00000000E+00  0.00000000E+00
 -4.70613073E+00  0.00000000E+00  0.00000000E+00  0.00000000E+00 -6.41633214E+00
  5.97254166E-19 -1.75920815E-18  0.00000000E+00  0.00000000E+00  0.00000000E+00
 -2.28499964E+00  0.00000000E+00  0.00000000E+00  0.00000000E+00 -3.46961027E+00
  0.00000000E+00  0.00000000E+00  0.00000000E+00 -1.86805494E+00  0.00000000E+00
  0.00000000E+00  0.00000000E+00  0.00000000E+00 -1.18682819E-17  0.00000000E+00
  2.08789660E+00 -5.97254166E-19  1.75920815E-18  0.00000000E+00  0.00000000E+00
  0.00000000E+00 -4.70224144E+00  0.00000000E+00  0.00000000E+00  0.00000000E+00
 -6.39623550E+00 -9.22406318E-01 -2.37216630E+00 -3.21999961E+00 -5.54542833E+00
 -2.51854755E-17  0.00000000E+00  2.82431206E+00 -4.62337055E+00 -1.75124376E-17
  0.00000000E+00  8.96182510E-01 -1.73106974E+00 -1.56942072E-18  0.00000000E+00
 -8.32048099E-01 -3.70016522E+00 -3.64565344E+00 -4.42303994E+00  0.00000000E+00
  2.39688524E-17  0.00000000E+00 -9.22406318E-01 -2.37216630E+00 -1.25284381E-02
 -4.10182838E-01  0.00000000E+00  0.00000000E+00 -4.97489659E+00 -1.06594493E+00
  0.00000000E+00  0.00000000E+00 -7.38073144E+00 -1.02919806E+00 -2.67322678E+00
 -1.57327029E+00 -3.77731118E+00 -2.17922751E-18  0.00000000E+00  1.73924958E+00
 -5.17025747E+00 -5.12798515E-18  0.00000000E+00  3.52811584E+00 -4.62737076E+00
 -3.28512574E-18  0.00000000E+00  2.71902051E+00 -2.62655327E+00 -2.57361418E+00
 -3.40705670E+00  0.00000000E+00  1.06167328E-18  0.00000000E+00 -1.02919806E+00
 -2.67322678E+00 -2.47208426E+00 -4.70285278E+00  0.00000000E+00  0.00000000E+00
 -3.58904625E-01 -6.42413973E+00  0.00000000E+00  0.00000000E+00 -1.06270711E+00
 -6.22288626E+00  8.36967421E-01  1.35171472E+00  1.57289700E-18  6.83258710E-18
 -1.67396313E+00  0.00000000E+00 -3.76682817E-18  7.24593577E-18 -3.42855225E+00
  0.00000000E+00 -6.64931734E-18  2.36516094E-18 -3.00434074E+00  0.00000000E+00
 -2.14030896E-18  3.74245518E-18  5.57454898E-18  6.55619973E-18  0.00000000E+00
  6.44357698E-01  0.00000000E+00 -8.36967421E-01 -1.35171472E+00  0.00000000E+00
  0.00000000E+00 -1.58056504E+00  0.00000000E+00  0.00000000E+00  0.00000000E+00
 -3.84384509E+00  0.00000000E+00  0.00000000E+00  0.00000000E+00 -4.29752140E+00
 -1.75122611E-18 -3.10166973E-18  0.00000000E+00  0.00000000E+00  0.00000000E+00
 -1.63722540E+00  0.00000000E+00  0.00000000E+00  0.00000000E+00 -3.35496642E+00
  0.00000000E+00  0.00000000E+00  0.00000000E+00 -2.96378610E+00  0.00000000E+00
  0.00000000E+00  0.00000000E+00  0.00000000E+00 -1.58663977E-18  0.00000000E+00
  6.66588387E-01  1.75122611E-18  3.10166973E-18  0.00000000E+00  0.00000000E+00
  0.00000000E+00 -1.57901572E+00  0.00000000E+00  0.00000000E+00  0.00000000E+00
 -3.82440613E+00  0.00000000E+00  0.00000000E+00  0.00000000E+00 -4.25914978E+00
 -1.73647864E+00 -3.18286375E+00 -2.05926539E+00 -4.07873557E+00 -3.76682817E-18
  0.00000000E+00 -2.82398477E-03 -4.31990402E+00 -6.64931734E-18  0.00000000E+00
 -1.05060201E+00 -2.35483080E+00 -2.14030896E-18  0.00000000E+00 -1.90581481E+00
 -3.07198862E+00 -2.98830712E+00 -2.87729303E+00  0.00000000E+00  1.13629221E-19
  0.00000000E+00 -1.73647864E+00 -3.18286375E+00 -3.13908124E-03 -1.41941041E-01
  0.00000000E+00  0.00000000E+00 -1.68539792E+00 -5.94504836E-01  0.00000000E+00
  0.00000000E+00 -4.47576391E+00 -9.15590379E-01  0.00000000E+00  0.00000000E+00