
Running Job 1 of 1 input
qchem input_10515.0 /aimm/scratch/qchem10515/ 0
/home/epif/aimm/qcprog.exe_s input_10515.0 /aimm/scratch/qchem10515/
8388608
                  Welcome to Q-Chem
     A Quantum Leap Into The Future Of Chemistry


 Q-Chem 6.0, Q-Chem, Inc., Pleasanton, CA (2022)

 E. Epifanovsky,  A. T. B. Gilbert,  Xintian Feng,  Joonho Lee,  Yuezhi Mao,  
 N. Mardirossian,  P. Pokhilko,  A. White,  M. Wormit,  M. P. Coons,  
 A. L. Dempwolff,  Zhengting Gan,  D. Hait,  P. R. Horn,  L. D. Jacobson,  
 I. Kaliman,  J. Kussmann,  A. W. Lange,  Ka Un Lao,  D. S. Levine,  Jie Liu,  
 S. C. McKenzie,  A. F. Morrison,  K. Nanda,  F. Plasser,  D. R. Rehn,  
 M. L. Vidal,  Zhi-Qiang You,  Ying Zhu,  B. Alam,  B. Albrecht,  
 A. Aldossary,  E. Alguire,  J. H. Andersen,  V. Athavale,  D. Barton,  
 K. Begam,  A. Behn,  N. Bellonzi,  Y. A. Bernard,  E. J. Berquist,  
 H. Burton,  A. Carreras,  K. Carter-Fenk,  Romit Chakraborty,  
 Chandrima Chakravarty,  Junhan Chen,  A. D. Chien,  K. D. Closser,  
 V. Cofer-Shabica,  L. Cunha,  S. Dasgupta,  Jia Deng,  M. de Wergifosse,  
 M. Diedenhofen,  Hainam Do,  S. Ehlert,  Po-Tung Fang,  S. Fatehi,  
 Qingguo Feng,  T. Friedhoff,  B. Ganoe,  J. Gayvert,  Qinghui Ge,  
 G. Gidofalvi,  M. Goldey,  J. Gomes,  C. Gonzalez-Espinoza,  S. Gulania,  
 A. Gunina,  J. A. Gyamfi,  M. W. D. Hanson-Heine,  P. H. P. Harbach,  
 A. W. Hauser,  M. F. Herbst,  M. Hernandez Vera,  M. Hodecker,  
 Z. C. Holden,  S. Houck,  Xunkun Huang,  Kerwin Hui,  B. C. Huynh,  
 K. Ikeda,  M. Ivanov,  Hyunjun Ji,  Zuxin Jin,  Hanjie Jiang,  B. Kaduk,  
 S. Kaehler,  R. Kang,  K. Khistyaev,  Jaehoon Kim,  Yongbin Kim,  
 P. Klunzinger,  Z. Koczor-Benda,  Joong Hoon Koh,  D. Kosenkov,  
 Saikiran Kotaru,  L. Koulias,  T. Kowalczyk,  C. M. Krauter,  K. Kue,  
 A. Kunitsa,  T. Kus,  A. Landau,  K. V. Lawler,  D. Lefrancois,  S. Lehtola,  
 Rain Li,  Shaozhi Li,  Yi-Pei Li,  Jiashu Liang,  M. Liebenthal,  
 Hung-Hsuan Lin,  You-Sheng Lin,  Fenglai Liu,  Kuan-Yu Liu,  
 M. Loipersberger,  A. Luenser,  C. Malbon,  A. Manjanath,  P. Manohar,  
 E. Mansoor,  S. F. Manzer,  Shan-Ping Mao,  A. V. Marenich,  T. Markovich,  
 S. Mason,  F. Matz,  S. A. Maurer,  P. F. McLaughlin,  M. F. S. J. Menger,  
 J.-M. Mewes,  S. A. Mewes,  P. Morgante,  Mohammad Mostafanejad,  
 J. W. Mullinax,  K. J. Oosterbaan,  G. Paran,  V. Parravicini,  
 Alexander C. Paul,  Suranjan K. Paul,  F. Pavosevic,  Zheng Pei,  S. Prager,  
 E. I. Proynov,  E. Ramos,  B. Rana,  A. E. Rask,  A. Rettig,  R. M. Richard,  
 F. Rob,  E. Rossomme,  T. Scheele,  M. Scheurer,  M. Schneider,  
 P. E. Schneider,  N. Sergueev,  S. M. Sharada,  Hengyuan Shen,  
 W. Skomorowski,  D. W. Small,  C. J. Stein,  Yingli Su,  Yu-Chuan Su,  
 E. J. Sundstrom,  Zhen Tao,  J. Thirman,  Hung-Yi Tsai,  T. Tsuchimochi,  
 N. M. Tubman,  C. Utku,  S. P. Veccham,  O. Vydrov,  J. Wenzel,  
 Jonathan Wong,  J. Witte,  A. Yamada,  Chou-Hsun Yang,  Kun Yao,  
 S. Yeganeh,  S. R. Yost,  A. Zech,  F. Zeller,  Igor Ying Zhang,  
 Xing Zhang,  Yu Zhang,  D. Zuev,  A. Aspuru-Guzik,  A. T. Bell,  
 N. A. Besley,  K. B. Bravaya,  B. R. Brooks,  D. Casanova,  Jeng-Da Chai,  
 Hsing-Ta Chen,  S. Coriani,  C. J. Cramer,  A. E. DePrince, III,  
 R. A. DiStasio Jr.,  A. Dreuw,  B. D. Dunietz,  T. R. Furlani,  
 W. A. Goddard III,  S. Grimme,  S. Hammes-Schiffer,  T. Head-Gordon,  
 W. J. Hehre,  Chao-Ping Hsu,  T.-C. Jagau,  Yousung Jung,  A. Klamt,  
 Jing Kong,  D. S. Lambrecht,  Xiangyuan Li,  WanZhen Liang,  N. J. Mayhall,  
 C. W. McCurdy,  J. B. Neaton,  T. Neudecker,  C. Ochsenfeld,  
 J. A. Parkhill,  R. Peverati,  V. A. Rassolov,  Haisheng Ren,  Yihan Shao,  
 L. V. Slipchenko,  R. P. Steele,  J. E. Subotnik,  A. J. W. Thom,  
 A. Tkatchenko,  D. G. Truhlar,  T. Van Voorhis,  Fan Wang,  
 T. A. Wesolowski,  K. B. Whaley,  H. L. Woodcock III,  P. M. Zimmerman,  
 S. Faraji,  P. M. W. Gill,  M. Head-Gordon,  J. M. Herbert,  A. I. Krylov

 Contributors to earlier versions of Q-Chem not listed above: 
 R. D. Adamson,  B. Austin,  R. Baer,  J. Baker,  G. J. O. Beran,  
 K. Brandhorst,  S. T. Brown,  E. F. C. Byrd,  Arup K. Chakraborty,  
 G. K. L. Chan,  Chun-Min Chang,  Yunqing Chen,  C.-L. Cheng,  
 Siu Hung Chien,  D. M. Chipman,  D. L. Crittenden,  H. Dachsel,  
 R. J. Doerksen,  A. D. Dutoi,  R. G. Edgar,  J. Fosso-Tande,  
 L. Fusti-Molnar,  D. Ghosh,  A. Ghysels,  A. Golubeva-Zadorozhnaya,  
 J. Gonthier,  M. S. Gordon,  S. R. Gwaltney,  G. Hawkins,  J. E. Herr,  
 A. Heyden,  S. Hirata,  E. G. Hohenstein,  G. Kedziora,  F. J. Keil,  
 C. Kelley,  Jihan Kim,  R. A. King,  R. Z. Khaliullin,  P. P. Korambath,  
 W. Kurlancheek,  A. Laurent,  A. M. Lee,  M. S. Lee,  S. V. Levchenko,  
 Ching Yeh Lin,  D. Liotard,  E. Livshits,  R. C. Lochan,  I. Lotan,  
 L. A. Martinez-Martinez,  P. E. Maslen,  N. Nair,  D. P. O'Neill,  
 D. Neuhauser,  E. Neuscamman,  C. M. Oana,  R. Olivares-Amaya,  R. Olson,  
 T. M. Perrine,  B. Peters,  P. A. Pieniazek,  A. Prociuk,  Y. M. Rhee,  
 J. Ritchie,  M. A. Rohrdanz,  E. Rosta,  N. J. Russ,  H. F. Schaefer III,  
 M. W. Schmidt,  N. E. Schultz,  S. Sharma,  N. Shenvi,  C. D. Sherrill,  
 A. C. Simmonett,  A. Sodt,  T. Stein,  D. Stuck,  K. S. Thanthiriwatte,  
 V. Vanovschi,  L. Vogt,  Tao Wang,  A. Warshel,  M. A. Watson,  
 C. F. Williams,  Q. Wu,  X. Xu,  Jun Yang,  W. Zhang,  Yan Zhao

   Please cite Q-Chem as follows:
  "Software for the frontiers of quantum chemistry:
   An overview of developments in the Q-Chem 5 package"
   J. Chem. Phys. 155, 084801 (2021)
   https://doi.org/10.1063/5.0055522 (open access)

 Q-Chem 6.0.0 for Intel X86 EM64T Linux

 Parts of Q-Chem use Armadillo 9.900.5 (Nocturnal Misbehaviour).
 http://arma.sourceforge.net/

 Q-Chem begins on Sun Sep 11 05:58:43 2022  

 Host: iqmol
0

     Scratch files written to /aimm/scratch/qchem10515//
 Jul222 |scratch|qcdevops|jenkins|workspace|build_RNUM 6466   
 Processing $rem in /opt/qchem/qc600/config/preferences:
 Processing $rem in /home/epif/.qchemrc:
 Now reading second FSM geometry

 Checking the input file for inconsistencies... 	...done.

--------------------------------------------------------------
User input:
--------------------------------------------------------------
$molecule
0 1
O    1.3028342    0.1351160    0.4886373
C    0.2403005    0.5689240    0.0740547
C   -0.9417551   -0.3347667   -0.0510221
H    0.1582101    1.6147765   -0.2034503
H   -0.7070995   -1.1646542   -0.7500594
H   -1.8106907    0.2345291   -0.4423010
H   -1.2005989   -0.7535979    0.9439697
****
O    0.8115782   -0.5556819   -0.4552501
C   -0.1190388    0.3952200   -0.2180853
C   -1.3126225    0.0870782    0.2964189
H    0.1113971    1.4296267   -0.4516525
H    0.6561146   -1.4922523   -0.2650153
H   -2.0439660    0.8679581    0.4781221
H   -1.5667356   -0.9402313    0.5384077
$end

$rem
BASIS  =  6-31G
GUI  =  2
JOB_TYPE  =  FSM
METHOD  =  HF
$end

--------------------------------------------------------------
 ----------------------------------------------------------------
             Standard Nuclear Orientation (Angstroms)
    I     Atom           X                Y                Z
 ----------------------------------------------------------------
    1      O       1.3028342000     0.1351160000     0.4886373000
    2      C       0.2403005000     0.5689240000     0.0740547000
    3      C      -0.9417551000    -0.3347667000    -0.0510221000
    4      H       0.1582101000     1.6147765000    -0.2034503000
    5      H      -0.7070995000    -1.1646542000    -0.7500594000
    6      H      -1.8106907000     0.2345291000    -0.4423010000
    7      H      -1.2005989000    -0.7535979000     0.9439697000
 ----------------------------------------------------------------
 Nuclear Repulsion Energy =          69.74602097 hartrees
 There are       12 alpha and       12 beta electrons
 Requested basis set is 6-31G
 There are 17 shells and 35 basis functions

 Total QAlloc Memory Limit   8000 MB
 Mega-Array Size       188 MB
 MEM_STATIC part       192 MB

 beginning FSman 

*******************************************
*******************************************
******** Starting FSM Calculation *********
*******************************************
*******************************************
-FSM parameters:
 Maximum displacement of each coordinate during optimization (Angstrom)      0.05
 Maximum optimization steps for each new node                                3
 The scaling factor for optimization (hartrees/Angstrom^2)                   1.75
 The number of LST interpolations used for reparameterization                100
-Aligning product structure to maximum coincidence with the reactant structure
 Total R --> P Distance 2.364840
 New node interpolation distace (Angstroms): 0.20
-Performing force calculation on reactant structure in state:0
 ----------------------------------------------------------------
             Standard Nuclear Orientation (Angstroms)
    I     Atom           X                Y                Z
 ----------------------------------------------------------------
    1      O       1.3028342000     0.1351160000     0.4886373000
    2      C       0.2403005000     0.5689240000     0.0740547000
    3      C      -0.9417551000    -0.3347667000    -0.0510221000
    4      H       0.1582101000     1.6147765000    -0.2034503000
    5      H      -0.7070995000    -1.1646542000    -0.7500594000
    6      H      -1.8106907000     0.2345291000    -0.4423010000
    7      H      -1.2005989000    -0.7535979000     0.9439697000
 ----------------------------------------------------------------
 Nuclear Repulsion Energy =          69.74602097 hartrees
 There are       12 alpha and       12 beta electrons

                       Distance Matrix (Angstroms)
             O (  1)   C (  2)   C (  3)   H (  4)   H (  5)   H (  6)
   C (  2)  1.220265
   C (  3)  2.355887  1.493170
   H (  4)  1.994629  1.085152  2.243630
   H (  5)  2.695108  2.140566  1.110148  2.961887
   H (  6)  3.251241  2.141263  1.110066  2.416341  1.808409
   H (  7)  2.695240  2.140562  1.110148  2.961778  1.811696  1.808412

 
 Requested basis set is 6-31G
 There are 17 shells and 35 basis functions
 A cutoff of  1.0D-12 yielded    152 shell pairs
 There are       665 function pairs
 Smallest overlap matrix eigenvalue = 9.18E-03

 Scale SEOQF with 1.000000e-01/1.000000e-01/1.000000e+00

 Standard Electronic Orientation quadrupole field applied
 Nucleus-field energy     =    -0.0000000025 hartrees
 Guess from superposition of atomic densities
 Warning:  Energy on first SCF cycle will be non-variational
 SAD guess density has 24.000000 electrons

 -----------------------------------------------------------------------
  General SCF calculation program by
  Eric Jon Sundstrom, Paul Horn, Yuezhi Mao, Dmitri Zuev, Alec White,
  David Stuck, Shaama M.S., Shane Yost, Joonho Lee, David Small,
  Daniel Levine, Susi Lehtola, Hugh Burton, Evgeny Epifanovsky,
  Bang C. Huynh
 -----------------------------------------------------------------------
 Hartree-Fock
 A restricted SCF calculation will be
 performed using DIIS
 SCF converges when DIIS error is below 1.0e-08
 ---------------------------------------
  Cycle       Energy         DIIS error
 ---------------------------------------
    1    -153.4843037969      1.66e-01  
    2    -152.7446554970      2.36e-02  
    3    -152.7892580278      2.06e-02  
    4    -152.8377123043      1.77e-03  
    5    -152.8390183577      7.54e-04  
    6    -152.8392343652      3.46e-04  
    7    -152.8392908949      1.07e-04  
    8    -152.8392945003      2.55e-05  
    9    -152.8392947115      4.75e-06  
   10    -152.8392947190      8.42e-07  
   11    -152.8392947192      9.36e-08  
   12    -152.8392947192      1.54e-08  
   13    -152.8392947192      2.25e-09  Convergence criterion met
 ---------------------------------------
 SCF time:   CPU 0.46s  wall 1.00s 
 SCF   energy in the final basis set =     -152.8392947192
 Total energy in the final basis set =     -152.8392947192
 
 --------------------------------------------------------------
 
                    Orbital Energies (a.u.)
 --------------------------------------------------------------
 
 Alpha MOs
 -- Occupied --
-20.5715 -11.3469 -11.2493  -1.4095  -1.0228  -0.8098  -0.6765  -0.6180
 -0.6068  -0.5529  -0.4911  -0.4263
 -- Virtual --
  0.1322   0.2428   0.2536   0.3166   0.3187   0.4051   0.4377   0.7516
  0.7676   0.8128   0.8302   0.9334   0.9925   1.0182   1.1418   1.1698
  1.1905   1.2081   1.2714   1.2992   1.4048   1.4930   1.9679
 --------------------------------------------------------------
 
          Ground-State Mulliken Net Atomic Charges

     Atom                 Charge (a.u.)
  ----------------------------------------
      1 O                    -0.501438
      2 C                     0.304291
      3 C                    -0.550244
      4 H                     0.168162
      5 H                     0.209090
      6 H                     0.161051
      7 H                     0.209087
  ----------------------------------------
  Sum of atomic charges =     0.000000

 -----------------------------------------------------------------
                    Cartesian Multipole Moments
 -----------------------------------------------------------------
    Charge (ESU x 10^10)
                 0.0000
    Dipole Moment (Debye)
         X      -3.0583      Y       0.7203      Z      -1.0651
       Tot       3.3176
    Quadrupole Moments (Debye-Ang)
        XX     -23.0768     XY       0.1434     YY     -17.0986
        XZ      -1.9879     YZ      -0.0409     ZZ     -18.5816
    Octopole Moments (Debye-Ang^2)
       XXX      -9.6490    XXY      -2.1691    XYY      -1.0326
       YYY      -3.7654    XXZ      -5.0405    XYZ       0.2049
       YYZ      -3.1197    XZZ      -2.0695    YZZ      -2.3970
       ZZZ      -6.9516
    Hexadecapole Moments (Debye-Ang^3)
      XXXX    -137.4718   XXXY     -16.0222   XXYY     -30.1898
      XYYY     -12.8063   YYYY     -47.3303   XXXZ     -15.5701
      XXYZ      -1.6542   XYYZ      -4.2790   YYYZ      -1.0161
      XXZZ     -27.4236   XYZZ      -3.9152   YYZZ     -13.0059
      XZZZ     -13.4517   YZZZ      -1.5424   ZZZZ     -31.5512
 -----------------------------------------------------------------
 Calculating analytic gradient of the SCF energy
 Gradient of SCF Energy
            1           2           3           4           5           6
    1   0.0026442  -0.0157677   0.0219997   0.0023454   0.0047619  -0.0116833
    2  -0.0092751   0.0126848  -0.0018568   0.0018498  -0.0122598   0.0135667
    3   0.0030184  -0.0076649   0.0068604   0.0002331  -0.0134320  -0.0066969
            7
    1  -0.0043001
    2  -0.0047097
    3   0.0176820
 Max gradient component =       2.200E-02
 RMS gradient           =       1.020E-02
 Gradient time:  CPU 0.10 s  wall 0.10 s
-Performing force calculation on product structure in state0
 ----------------------------------------------------------------
             Standard Nuclear Orientation (Angstroms)
    I     Atom           X                Y                Z
 ----------------------------------------------------------------
    1      O       0.9944929540    -0.3667069619    -0.0568481936
    2      C      -0.0410136311     0.5012852437    -0.0855746559
    3      C      -1.3004125936     0.0869291158     0.0773094813
    4      H       0.1582854249     1.5561196820    -0.2444952522
    5      H       0.8708285490    -1.3170346656     0.0813787746
    6      H      -2.1156821608     0.8026513868     0.0502918963
    7      H      -1.5252979424    -0.9629170008     0.2377668494
 ----------------------------------------------------------------
 Nuclear Repulsion Energy =          70.48377015 hartrees
 There are       12 alpha and       12 beta electrons

                       Distance Matrix (Angstroms)
             O (  1)   C (  2)   C (  3)   H (  4)   H (  5)   H (  6)
   C (  2)  1.351484
   C (  3)  2.343155  1.335780
   H (  4)  2.105164  1.085197  2.095204
   H (  5)  0.968257  2.040984  2.585618  2.978074
   H (  6)  3.324465  2.100840  1.085197  2.413616  3.662415
   H (  7)  2.606072  2.109867  1.085586  3.067992  2.427196  1.871078

 
 Applying Cartesian multipole field
    Component          Value
    ---------          -----
     (2,0,0)        1.00000E-11
     (0,2,0)        2.00000E-11
     (0,0,2)       -3.00000E-10
 Nucleus-field energy     =     0.0000000013 hartrees
 Requested basis set is 6-31G
 There are 17 shells and 35 basis functions
 A cutoff of  1.0D-12 yielded    152 shell pairs
 There are       665 function pairs
 Smallest overlap matrix eigenvalue = 6.85E-03
 Guess from superposition of atomic densities
 Warning:  Energy on first SCF cycle will be non-variational
 SAD guess density has 24.000000 electrons

 -----------------------------------------------------------------------
  General SCF calculation program by
  Eric Jon Sundstrom, Paul Horn, Yuezhi Mao, Dmitri Zuev, Alec White,
  David Stuck, Shaama M.S., Shane Yost, Joonho Lee, David Small,
  Daniel Levine, Susi Lehtola, Hugh Burton, Evgeny Epifanovsky,
  Bang C. Huynh
 -----------------------------------------------------------------------
 Hartree-Fock
 A restricted SCF calculation will be
 performed using DIIS
 SCF converges when DIIS error is below 1.0e-08
 ---------------------------------------
  Cycle       Energy         DIIS error
 ---------------------------------------
    1    -153.5610862127      1.69e-01  
    2    -152.7800019776      1.51e-02  
    3    -152.8151757667      6.50e-03  
    4    -152.8208291230      1.57e-03  
    5    -152.8213306293      2.33e-04  
    6    -152.8213501409      1.39e-04  
    7    -152.8213544330      3.23e-05  
    8    -152.8213550502      1.17e-05  
    9    -152.8213550977      3.42e-06  
   10    -152.8213551027      7.58e-07  
   11    -152.8213551030      1.08e-07  
   12    -152.8213551030      1.83e-08  
   13    -152.8213551030      2.87e-09  Convergence criterion met
 ---------------------------------------
 SCF time:   CPU 0.42s  wall 0.00s 
 SCF   energy in the final basis set =     -152.8213551030
 Total energy in the final basis set =     -152.8213551030
 
 --------------------------------------------------------------
 
                    Orbital Energies (a.u.)
 --------------------------------------------------------------
 
 Alpha MOs
 -- Occupied --
-20.5809 -11.3103 -11.2185  -1.4006  -1.0283  -0.8324  -0.6915  -0.6599
 -0.5716  -0.5432  -0.5117  -0.3429
 -- Virtual --
  0.1922   0.2137   0.2683   0.2907   0.3371   0.4702   0.5109   0.7462
  0.7722   0.8315   0.8688   0.8798   0.9667   1.1177   1.1342   1.1818
  1.2269   1.2323   1.3292   1.3689   1.4799   1.6764   2.0285
 --------------------------------------------------------------
 
          Ground-State Mulliken Net Atomic Charges

     Atom                 Charge (a.u.)
  ----------------------------------------
      1 O                    -0.787792
      2 C                     0.269149
      3 C                    -0.457534
      4 H                     0.216952
      5 H                     0.439167
      6 H                     0.167680
      7 H                     0.152379
  ----------------------------------------
  Sum of atomic charges =     0.000000

 -----------------------------------------------------------------
                    Cartesian Multipole Moments
 -----------------------------------------------------------------
    Charge (ESU x 10^10)
                -0.0000
    Dipole Moment (Debye)
         X      -1.0022      Y      -0.7383      Z       0.1842
       Tot       1.2583
    Quadrupole Moments (Debye-Ang)
        XX     -21.1485     XY      -0.9545     YY     -13.1743
        XZ       0.1767     YZ      -0.9328     ZZ     -20.7248
    Octopole Moments (Debye-Ang^2)
       XXX       5.8520    XXY      -1.3656    XYY       6.1676
       YYY      -6.8253    XXZ       1.0894    XYZ      -0.0913
       YYZ       0.2100    XZZ       5.4996    YZZ      -1.7102
       ZZZ       0.6314
    Hexadecapole Moments (Debye-Ang^3)
      XXXX    -138.5790   XXXY       6.3982   XXYY     -25.9397
      XYYY       5.6708   YYYY     -36.8642   XXXZ       3.3270
      XXYZ      -0.3380   XYYZ       1.2741   YYYZ      -0.2479
      XXZZ     -29.3253   XYZZ       3.7569   YYZZ     -12.0350
      XZZZ       3.8865   YZZZ       1.2926   ZZZZ     -21.2467
 -----------------------------------------------------------------
 Calculating analytic gradient of the SCF energy
 Gradient of SCF Energy
            1           2           3           4           5           6
    1  -0.0375789   0.0496373  -0.0037701  -0.0145190   0.0104747  -0.0060603
    2   0.0053422   0.0138605  -0.0119097   0.0159975  -0.0238753   0.0097358
    3   0.0024781  -0.0060825   0.0019233  -0.0009184   0.0023177  -0.0007971
            7
    1   0.0018162
    2  -0.0091511
    3   0.0010790
 Max gradient component =       4.964E-02
 RMS gradient           =       1.644E-02
 Gradient time:  CPU 0.10 s  wall 0.10 s

STARTING FREEZING STRING ITERATION # 1
 The distance between the innermost nodes (Angstroms): 2.365
-Adding two new nodes
 The distance between the previous and current R_nodes (Angstroms): 0.1915
 The distance between the previous and current P_nodes (Angstroms): 0.1972
-Optimizing new reactant side node
 Using BFGS, step: 2 E_tol 0.0179
 max_steps 3, node_spacing 0.1971, sigma 0.7000
 ----------------------------------------------------------------
             Standard Nuclear Orientation (Angstroms)
    I     Atom           X                Y                Z
 ----------------------------------------------------------------
    1      O       1.2844687215     0.0814399283     0.4406627786
    2      C       0.2166871958     0.5708537737     0.0715007953
    3      C      -0.9780220412    -0.2890854633    -0.0394460160
    4      H       0.1606974442     1.6166454817    -0.2095468471
    5      H      -0.5657790088    -1.2164042431    -0.7543143298
    6      H      -1.8444979685     0.2776682654    -0.4276331179
    7      H      -1.2282735215    -0.7632407310     0.9285137177
 ----------------------------------------------------------------
 Nuclear Repulsion Energy =          69.54128314 hartrees
 There are       12 alpha and       12 beta electrons

                       Distance Matrix (Angstroms)
             O (  1)   C (  2)   C (  3)   H (  4)   H (  5)   H (  6)
   C (  2)  1.231245
   C (  3)  2.342362  1.476189
   H (  4)  2.010595  1.084344  2.226528
   H (  5)  2.556518  2.118612  1.241330  2.975014
   H (  6)  3.253133  2.140929  1.105748  2.420998  1.993513
   H (  7)  2.695433  2.145272  1.106524  2.981322  1.864448  1.817239

 
 Applying Cartesian multipole field
    Component          Value
    ---------          -----
     (2,0,0)        1.00000E-11
     (0,2,0)        2.00000E-11
     (0,0,2)       -3.00000E-10
 Nucleus-field energy     =    -0.0000000021 hartrees
 Requested basis set is 6-31G
 There are 17 shells and 35 basis functions
 A cutoff of  1.0D-12 yielded    152 shell pairs
 There are       665 function pairs
 Smallest overlap matrix eigenvalue = 9.02E-03
 Guess from superposition of atomic densities
 Warning:  Energy on first SCF cycle will be non-variational
 SAD guess density has 24.000000 electrons

 -----------------------------------------------------------------------
  General SCF calculation program by
  Eric Jon Sundstrom, Paul Horn, Yuezhi Mao, Dmitri Zuev, Alec White,
  David Stuck, Shaama M.S., Shane Yost, Joonho Lee, David Small,
  Daniel Levine, Susi Lehtola, Hugh Burton, Evgeny Epifanovsky,
  Bang C. Huynh
 -----------------------------------------------------------------------
 Hartree-Fock
 A restricted SCF calculation will be
 performed using DIIS
 SCF converges when DIIS error is below 1.0e-08
 ---------------------------------------
  Cycle       Energy         DIIS error
 ---------------------------------------
    1    -153.4030575306      1.63e-01  
    2    -152.7265817803      2.39e-02  
    3    -152.7705411693      2.12e-02  
    4    -152.8223086593      1.78e-03  
    5    -152.8236925676      7.32e-04  
    6    -152.8239095167      3.46e-04  
    7    -152.8239665438      1.12e-04  
    8    -152.8239707364      2.71e-05  
    9    -152.8239709830      5.55e-06  
   10    -152.8239709940      1.22e-06  
   11    -152.8239709949      4.74e-07  
   12    -152.8239709952      2.17e-07  
   13    -152.8239709952      3.64e-08  
   14    -152.8239709952      5.66e-09  Convergence criterion met
 ---------------------------------------
 SCF time:   CPU 0.55s  wall 1.00s 
 SCF   energy in the final basis set =     -152.8239709952
 Total energy in the final basis set =     -152.8239709952
 
 --------------------------------------------------------------
 
                    Orbital Energies (a.u.)
 --------------------------------------------------------------
 
 Alpha MOs
 -- Occupied --
-20.5693 -11.3473 -11.2617  -1.4014  -1.0224  -0.8068  -0.6777  -0.6172
 -0.5860  -0.5565  -0.4755  -0.4275
 -- Virtual --
  0.1244   0.2317   0.2514   0.2971   0.3200   0.4049   0.4407   0.7521
  0.7726   0.8150   0.8434   0.9310   0.9815   1.0322   1.0788   1.1446
  1.1929   1.2044   1.2786   1.3026   1.3942   1.4853   1.9661
 --------------------------------------------------------------
 
          Ground-State Mulliken Net Atomic Charges

     Atom                 Charge (a.u.)
  ----------------------------------------
      1 O                    -0.515791
      2 C                     0.316182
      3 C                    -0.552484
      4 H                     0.171953
      5 H                     0.196459
      6 H                     0.167459
      7 H                     0.216221
  ----------------------------------------
  Sum of atomic charges =     0.000000

 -----------------------------------------------------------------
                    Cartesian Multipole Moments
 -----------------------------------------------------------------
    Charge (ESU x 10^10)
                 0.0000
    Dipole Moment (Debye)
         X      -3.1015      Y       0.8856      Z      -0.9137
       Tot       3.3524
    Quadrupole Moments (Debye-Ang)
        XX     -23.0727     XY       0.0502     YY     -17.0609
        XZ      -2.0009     YZ      -0.0962     ZZ     -18.7269
    Octopole Moments (Debye-Ang^2)
       XXX      -8.8779    XXY      -1.3716    XYY      -0.4932
       YYY      -3.2870    XXZ      -4.2181    XYZ       0.6209
       YYZ      -2.8252    XZZ      -1.2807    YZZ      -2.1372
       ZZZ      -5.8806
    Hexadecapole Moments (Debye-Ang^3)
      XXXX    -136.7115   XXXY     -14.2102   XXYY     -30.3998
      XYYY     -10.9863   YYYY     -47.2695   XXXZ     -13.8077
      XXYZ      -1.8567   XYYZ      -4.0552   YYYZ      -0.7665
      XXZZ     -27.3509   XYZZ      -3.3738   YYZZ     -12.7865
      XZZZ     -12.1112   YZZZ      -1.3898   ZZZZ     -30.6965
 -----------------------------------------------------------------
 Calculating analytic gradient of the SCF energy
 Gradient of SCF Energy
            1           2           3           4           5           6
    1   0.0152441  -0.0339329  -0.0048479   0.0003253   0.0381557  -0.0118484
    2  -0.0195395   0.0128431   0.0468725   0.0010116  -0.0518584   0.0191179
    3   0.0062942  -0.0139912   0.0306374  -0.0015476  -0.0352787  -0.0001307
            7
    1  -0.0030959
    2  -0.0084473
    3   0.0140165
 Max gradient component =       5.186E-02
 RMS gradient           =       2.340E-02
 Gradient time:  CPU 0.11 s  wall 0.11 s
 ----------------------------------------------------------------
             Standard Nuclear Orientation (Angstroms)
    I     Atom           X                Y                Z
 ----------------------------------------------------------------
    1      O       1.2716784528     0.0823321845     0.4257976307
    2      C       0.2314998579     0.5644474477     0.0818578467
    3      C      -0.9827862932    -0.3076018085    -0.0531179604
    4      H       0.1608096744     1.6167264497    -0.2092926229
    5      H      -0.5600085846    -1.1946180864    -0.7305263933
    6      H      -1.8447754901     0.2757304901    -0.4214479599
    7      H      -1.2311095708    -0.7589650037     0.9197434086
 ----------------------------------------------------------------
 Nuclear Repulsion Energy =          70.09987652 hartrees
 There are       12 alpha and       12 beta electrons

                       Distance Matrix (Angstroms)
             O (  1)   C (  2)   C (  3)   H (  4)   H (  5)   H (  6)
   C (  2)  1.196955
   C (  3)  2.337524  1.501059
   H (  4)  1.997933  1.094101  2.243934
   H (  5)  2.514511  2.093028  1.193491  2.948715
   H (  6)  3.235354  2.155828  1.104069  2.421911  1.976887
   H (  7)  2.686208  2.143058  1.100842  2.975915  1.834001  1.801659

 
 Applying Cartesian multipole field
    Component          Value
    ---------          -----
     (2,0,0)        1.00000E-11
     (0,2,0)        2.00000E-11
     (0,0,2)       -3.00000E-10
 Nucleus-field energy     =    -0.0000000019 hartrees
 Requested basis set is 6-31G
 There are 17 shells and 35 basis functions
 A cutoff of  1.0D-12 yielded    152 shell pairs
 There are       665 function pairs
 Smallest overlap matrix eigenvalue = 9.28E-03
 Guess from superposition of atomic densities
 Warning:  Energy on first SCF cycle will be non-variational
 SAD guess density has 24.000000 electrons

 -----------------------------------------------------------------------
  General SCF calculation program by
  Eric Jon Sundstrom, Paul Horn, Yuezhi Mao, Dmitri Zuev, Alec White,
  David Stuck, Shaama M.S., Shane Yost, Joonho Lee, David Small,
  Daniel Levine, Susi Lehtola, Hugh Burton, Evgeny Epifanovsky,
  Bang C. Huynh
 -----------------------------------------------------------------------
 Hartree-Fock
 A restricted SCF calculation will be
 performed using DIIS
 SCF converges when DIIS error is below 1.0e-08
 ---------------------------------------
  Cycle       Energy         DIIS error
 ---------------------------------------
    1    -153.4880017627      1.68e-01  
    2    -152.7384721284      2.32e-02  
    3    -152.7838241244      1.96e-02  
    4    -152.8273523694      1.75e-03  
    5    -152.8286463781      7.33e-04  
    6    -152.8288528885      3.33e-04  
    7    -152.8289045503      9.72e-05  
    8    -152.8289074108      2.41e-05  
    9    -152.8289075901      4.51e-06  
   10    -152.8289075980      1.07e-06  
   11    -152.8289075987      4.39e-07  
   12    -152.8289075990      1.79e-07  
   13    -152.8289075990      2.48e-08  
   14    -152.8289075990      3.71e-09  Convergence criterion met
 ---------------------------------------
 SCF time:   CPU 0.45s  wall 0.00s 
 SCF   energy in the final basis set =     -152.8289075990
 Total energy in the final basis set =     -152.8289075990
 
 --------------------------------------------------------------
 
                    Orbital Energies (a.u.)
 --------------------------------------------------------------
 
 Alpha MOs
 -- Occupied --
-20.5707 -11.3463 -11.2549  -1.4268  -1.0168  -0.8040  -0.6808  -0.6212
 -0.5935  -0.5628  -0.4904  -0.4209
 -- Virtual --
  0.1361   0.2378   0.2541   0.3027   0.3206   0.4042   0.4380   0.7485
  0.7781   0.8101   0.8393   0.9310   1.0110   1.0335   1.1059   1.1430
  1.2000   1.2067   1.2794   1.3030   1.3952   1.4856   1.9763
 --------------------------------------------------------------
 
          Ground-State Mulliken Net Atomic Charges

     Atom                 Charge (a.u.)
  ----------------------------------------
      1 O                    -0.490727
      2 C                     0.304582
      3 C                    -0.552354
      4 H                     0.162537
      5 H                     0.201116
      6 H                     0.165781
      7 H                     0.209065
  ----------------------------------------
  Sum of atomic charges =     0.000000

 -----------------------------------------------------------------
                    Cartesian Multipole Moments
 -----------------------------------------------------------------
    Charge (ESU x 10^10)
                 0.0000
    Dipole Moment (Debye)
         X      -2.9127      Y       0.8609      Z      -0.8358
       Tot       3.1501
    Quadrupole Moments (Debye-Ang)
        XX     -22.9240     XY       0.0132     YY     -17.1934
        XZ      -1.9181     YZ      -0.0468     ZZ     -18.6414
    Octopole Moments (Debye-Ang^2)
       XXX      -8.3660    XXY      -1.1495    XYY      -0.3439
       YYY      -3.2852    XXZ      -4.0165    XYZ       0.6062
       YYZ      -2.6713    XZZ      -1.0446    YZZ      -1.9732
       ZZZ      -5.5733
    Hexadecapole Moments (Debye-Ang^3)
      XXXX    -135.5441   XXXY     -14.5845   XXYY     -30.2479
      XYYY     -11.4737   YYYY     -47.8417   XXXZ     -13.4479
      XXYZ      -1.7224   XYYZ      -3.9129   YYYZ      -0.7468
      XXZZ     -27.0367   XYZZ      -3.5424   YYZZ     -12.7571
      XZZZ     -11.7453   YZZZ      -1.3016   ZZZZ     -29.8696
 -----------------------------------------------------------------
 Calculating analytic gradient of the SCF energy
 Gradient of SCF Energy
            1           2           3           4           5           6
    1  -0.0338042   0.0250831  -0.0157486  -0.0002004   0.0376146  -0.0113831
    2   0.0026328  -0.0079461   0.0260272   0.0049311  -0.0404974   0.0197336
    3  -0.0117643   0.0102320   0.0171572  -0.0046040  -0.0252518   0.0032698
            7
    1  -0.0015614
    2  -0.0048811
    3   0.0109612
 Max gradient component =       4.050E-02
 RMS gradient           =       1.917E-02
 Gradient time:  CPU 0.10 s  wall 0.10 s
 FSM gradient convergence criteria satisfied
done with opt_step_by_gradient, Reactant, iter1
-Optimizing new product side node
 Using BFGS, step: 2 E_tol 0.0179396
 max_steps 3, node_spacing 0.1970700, sigma 0.7000000
 ----------------------------------------------------------------
             Standard Nuclear Orientation (Angstroms)
    I     Atom           X                Y                Z
 ----------------------------------------------------------------
    1      O       1.0383990979    -0.3060239914    -0.0098949605
    2      C      -0.0194324846     0.5123466915    -0.0726252013
    3      C      -1.2783993152     0.0612885472     0.0633707627
    4      H       0.1568062755     1.5693159302    -0.2425268227
    5      H       0.7593146642    -1.3757827126     0.0098284063
    6      H      -2.1020283963     0.7685450676     0.0091874634
    7      H      -1.5093844272    -0.9716454961     0.3044312830
 ----------------------------------------------------------------
 Nuclear Repulsion Energy =          70.02884538 hartrees
 There are       12 alpha and       12 beta electrons

                       Distance Matrix (Angstroms)
             O (  1)   C (  2)   C (  3)   H (  4)   H (  5)   H (  6)
   C (  2)  1.338908
   C (  3)  2.346879  1.344227
   H (  4)  2.085239  1.084947  2.104171
   H (  5)  1.105740  2.044084  2.494057  3.016671
   H (  6)  3.319239  2.099890  1.086974  2.409757  3.575671
   H (  7)  2.651991  2.136437  1.085549  3.087368  2.323169  1.861897

 
 Applying Cartesian multipole field
    Component          Value
    ---------          -----
     (2,0,0)        1.00000E-11
     (0,2,0)        2.00000E-11
     (0,0,2)       -3.00000E-10
 Nucleus-field energy     =     0.0000000013 hartrees
 Requested basis set is 6-31G
 There are 17 shells and 35 basis functions
 A cutoff of  1.0D-12 yielded    152 shell pairs
 There are       665 function pairs
 Smallest overlap matrix eigenvalue = 7.22E-03
 Guess from superposition of atomic densities
 Warning:  Energy on first SCF cycle will be non-variational
 SAD guess density has 24.000000 electrons

 -----------------------------------------------------------------------
  General SCF calculation program by
  Eric Jon Sundstrom, Paul Horn, Yuezhi Mao, Dmitri Zuev, Alec White,
  David Stuck, Shaama M.S., Shane Yost, Joonho Lee, David Small,
  Daniel Levine, Susi Lehtola, Hugh Burton, Evgeny Epifanovsky,
  Bang C. Huynh
 -----------------------------------------------------------------------
 Hartree-Fock
 A restricted SCF calculation will be
 performed using DIIS
 SCF converges when DIIS error is below 1.0e-08
 ---------------------------------------
  Cycle       Energy         DIIS error
 ---------------------------------------
    1    -153.4556509454      1.65e-01  
    2    -152.7620175664      1.49e-02  
    3    -152.7982600255      6.70e-03  
    4    -152.8042828244      1.67e-03  
    5    -152.8049149152      3.55e-04  
    6    -152.8049544080      2.02e-04  
    7    -152.8049653937      4.46e-05  
    8    -152.8049666295      1.58e-05  
    9    -152.8049667241      5.28e-06  
   10    -152.8049667363      1.00e-06  
   11    -152.8049667368      1.29e-07  
   12    -152.8049667368      2.63e-08  
   13    -152.8049667368      6.47e-09  Convergence criterion met
 ---------------------------------------
 SCF time:   CPU 0.43s  wall 1.00s 
 SCF   energy in the final basis set =     -152.8049667368
 Total energy in the final basis set =     -152.8049667368
 
 --------------------------------------------------------------
 
                    Orbital Energies (a.u.)
 --------------------------------------------------------------
 
 Alpha MOs
 -- Occupied --
-20.6002 -11.3093 -11.2196  -1.3940  -1.0185  -0.8127  -0.6738  -0.6604
 -0.5763  -0.5425  -0.5134  -0.3408
 -- Virtual --
  0.1734   0.1934   0.2686   0.2888   0.3381   0.4639   0.5154   0.7483
  0.7724   0.8479   0.8696   0.8777   0.9633   1.0255   1.1245   1.1730
  1.2258   1.2338   1.2797   1.3597   1.4769   1.6277   2.0587
 --------------------------------------------------------------
 
          Ground-State Mulliken Net Atomic Charges

     Atom                 Charge (a.u.)
  ----------------------------------------
      1 O                    -0.759152
      2 C                     0.260677
      3 C                    -0.465468
      4 H                     0.216970
      5 H                     0.429481
      6 H                     0.165482
      7 H                     0.152010
  ----------------------------------------
  Sum of atomic charges =     0.000000

 -----------------------------------------------------------------
                    Cartesian Multipole Moments
 -----------------------------------------------------------------
    Charge (ESU x 10^10)
                -0.0000
    Dipole Moment (Debye)
         X      -1.1347      Y      -0.7972      Z      -0.0562
       Tot       1.3879
    Quadrupole Moments (Debye-Ang)
        XX     -21.7538     XY      -0.6657     YY     -13.1420
        XZ      -0.2555     YZ      -0.7091     ZZ     -20.8546
    Octopole Moments (Debye-Ang^2)
       XXX       3.7835    XXY      -0.9868    XYY       5.4962
       YYY      -7.4513    XXZ       0.5302    XYZ       0.4333
       YYZ      -0.3140    XZZ       4.9556    YZZ      -1.7592
       ZZZ      -0.0591
    Hexadecapole Moments (Debye-Ang^3)
      XXXX    -140.4035   XXXY       5.9190   XXYY     -27.0424
      XYYY       4.6485   YYYY     -36.4908   XXXZ       1.8314
      XXYZ      -0.2348   XYYZ       0.5819   YYYZ       0.4166
      XXZZ     -29.4115   XYZZ       3.3089   YYZZ     -12.1338
      XZZZ       2.6784   YZZZ       1.6992   ZZZZ     -21.3270
 -----------------------------------------------------------------
 Calculating analytic gradient of the SCF energy
 Gradient of SCF Energy
            1           2           3           4           5           6
    1  -0.0099175   0.0640203  -0.0087607  -0.0114880  -0.0255792  -0.0066431
    2   0.1011601   0.0038247  -0.0219761   0.0138469  -0.0997895   0.0102824
    3   0.0005099  -0.0024080  -0.0022477  -0.0010546   0.0005269  -0.0004049
            7
    1  -0.0016319
    2  -0.0073485
    3   0.0050784
 Max gradient component =       1.012E-01
 RMS gradient           =       3.531E-02
 Gradient time:  CPU 0.10 s  wall 0.10 s
 ----------------------------------------------------------------
             Standard Nuclear Orientation (Angstroms)
    I     Atom           X                Y                Z
 ----------------------------------------------------------------
    1      O       1.0484242253    -0.3381060042    -0.0013159771
    2      C      -0.0424462274     0.5129299059    -0.0694468394
    3      C      -1.2717434535     0.0672186363     0.0612721412
    4      H       0.1610262912     1.5659983893    -0.2422596467
    5      H       0.7539373130    -1.3417067086    -0.0030646212
    6      H      -2.0975322122     0.7598968102     0.0022697757
    7      H      -1.5064053687    -0.9681996473     0.3136587976
 ----------------------------------------------------------------
 Nuclear Repulsion Energy =          69.94363558 hartrees
 There are       12 alpha and       12 beta electrons

                       Distance Matrix (Angstroms)
             O (  1)   C (  2)   C (  3)   H (  4)   H (  5)   H (  6)
   C (  2)  1.385244
   C (  3)  2.356137  1.314122
   H (  4)  2.114508  1.086379  2.095543
   H (  5)  1.045916  2.019483  2.468318  2.977164
   H (  6)  3.332066  2.071114  1.079450  2.410535  3.542265
   H (  7)  2.650166  2.117473  1.091264  3.084077  2.312784  1.852758

 
 Applying Cartesian multipole field
    Component          Value
    ---------          -----
     (2,0,0)        1.00000E-11
     (0,2,0)        2.00000E-11
     (0,0,2)       -3.00000E-10
 Nucleus-field energy     =     0.0000000013 hartrees
 Requested basis set is 6-31G
 There are 17 shells and 35 basis functions
 A cutoff of  1.0D-12 yielded    152 shell pairs
 There are       665 function pairs
 Smallest overlap matrix eigenvalue = 6.58E-03
 Guess from superposition of atomic densities
 Warning:  Energy on first SCF cycle will be non-variational
 SAD guess density has 24.000000 electrons

 -----------------------------------------------------------------------
  General SCF calculation program by
  Eric Jon Sundstrom, Paul Horn, Yuezhi Mao, Dmitri Zuev, Alec White,
  David Stuck, Shaama M.S., Shane Yost, Joonho Lee, David Small,
  Daniel Levine, Susi Lehtola, Hugh Burton, Evgeny Epifanovsky,
  Bang C. Huynh
 -----------------------------------------------------------------------
 Hartree-Fock
 A restricted SCF calculation will be
 performed using DIIS
 SCF converges when DIIS error is below 1.0e-08
 ---------------------------------------
  Cycle       Energy         DIIS error
 ---------------------------------------
    1    -153.4746556638      1.65e-01  
    2    -152.7736741842      1.51e-02  
    3    -152.8097154374      7.00e-03  
    4    -152.8160359827      1.72e-03  
    5    -152.8166514830      3.58e-04  
    6    -152.8166888977      1.88e-04  
    7    -152.8166986056      4.00e-05  
    8    -152.8166995344      1.29e-05  
    9    -152.8166995927      4.12e-06  
   10    -152.8166995997      8.82e-07  
   11    -152.8166996000      1.18e-07  
   12    -152.8166996000      2.16e-08  
   13    -152.8166996000      4.18e-09  Convergence criterion met
 ---------------------------------------
 SCF time:   CPU 0.43s  wall 0.00s 
 SCF   energy in the final basis set =     -152.8166996000
 Total energy in the final basis set =     -152.8166996000
 
 --------------------------------------------------------------
 
                    Orbital Energies (a.u.)
 --------------------------------------------------------------
 
 Alpha MOs
 -- Occupied --
-20.5912 -11.3072 -11.2230  -1.3796  -1.0347  -0.8113  -0.6702  -0.6649
 -0.5661  -0.5434  -0.5192  -0.3542
 -- Virtual --
  0.1863   0.2029   0.2667   0.2836   0.3334   0.4573   0.5187   0.7255
  0.7670   0.8468   0.8609   0.8803   0.9788   1.0636   1.1265   1.1708
  1.2269   1.2332   1.3009   1.3838   1.4746   1.6126   2.0453
 --------------------------------------------------------------
 
          Ground-State Mulliken Net Atomic Charges

     Atom                 Charge (a.u.)
  ----------------------------------------
      1 O                    -0.766686
      2 C                     0.252064
      3 C                    -0.456666
      4 H                     0.217974
      5 H                     0.423755
      6 H                     0.169941
      7 H                     0.159616
  ----------------------------------------
  Sum of atomic charges =     0.000000

 -----------------------------------------------------------------
                    Cartesian Multipole Moments
 -----------------------------------------------------------------
    Charge (ESU x 10^10)
                -0.0000
    Dipole Moment (Debye)
         X      -1.4819      Y      -0.6374      Z      -0.0871
       Tot       1.6155
    Quadrupole Moments (Debye-Ang)
        XX     -21.5887     XY      -0.4799     YY     -13.3153
        XZ      -0.3129     YZ      -0.6606     ZZ     -20.7050
    Octopole Moments (Debye-Ang^2)
       XXX       2.9126    XXY      -0.6646    XYY       5.1808
       YYY      -6.6293    XXZ       0.4193    XYZ       0.4871
       YYZ      -0.4059    XZZ       4.6826    YZZ      -1.6376
       ZZZ      -0.1706
    Hexadecapole Moments (Debye-Ang^3)
      XXXX    -139.2746   XXXY       6.8832   XXYY     -27.0520
      XYYY       5.8360   YYYY     -37.2549   XXXZ       1.5931
      XXYZ      -0.2131   XYYZ       0.4393   YYYZ       0.4955
      XXZZ     -29.0655   XYZZ       3.5468   YYZZ     -12.0400
      XZZZ       2.4204   YZZZ       1.7347   ZZZZ     -20.9933
 -----------------------------------------------------------------
 Calculating analytic gradient of the SCF energy
 Gradient of SCF Energy
            1           2           3           4           5           6
    1   0.0169308  -0.0005425   0.0214498  -0.0098453  -0.0227259  -0.0026269
    2   0.0551864   0.0079795  -0.0018026   0.0157135  -0.0724037   0.0062958
    3   0.0033297   0.0010528  -0.0081794  -0.0012764  -0.0013824  -0.0001264
            7
    1  -0.0026401
    2  -0.0109689
    3   0.0065820
 Max gradient component =       7.240E-02
 RMS gradient           =       2.211E-02
 Gradient time:  CPU 0.10 s  wall 0.10 s
 FSM gradient convergence criteria satisfied
 After opt distance between the previous and current R_nodes (Angstroms): 0.1915
 After opt distance between the previous and current P_nodes (Angstroms): 0.1972
-Printing perpgrad.txt, Vfile.txt, and stringfile.txt

STARTING FREEZING STRING ITERATION # 2
 The distance between the innermost nodes (Angstroms): 2.024
-Adding two new nodes
 The distance between the previous and current R_nodes (Angstroms): 0.2059
 The distance between the previous and current P_nodes (Angstroms): 0.1956
-Optimizing new reactant side node
 Using BFGS, step: 3 E_tol 0.0179
 max_steps 3, node_spacing 0.1971, sigma 0.7000
 ----------------------------------------------------------------
             Standard Nuclear Orientation (Angstroms)
    I     Atom           X                Y                Z
 ----------------------------------------------------------------
    1      O       1.2525884074     0.0286460649     0.3772117831
    2      C       0.2017050042     0.5662524963     0.0793567222
    3      C      -1.0175503004    -0.2627577348    -0.0466325685
    4      H       0.1631719879     1.6174270922    -0.2157878436
    5      H      -0.4125950560    -1.2432682090    -0.7172389952
    6      H      -1.8776973972     0.3250471811    -0.3999022137
    7      H      -1.2605184924    -0.7738739375     0.8956876357
 ----------------------------------------------------------------
 Nuclear Repulsion Energy =          69.79607122 hartrees
 There are       12 alpha and       12 beta electrons

                       Distance Matrix (Angstroms)
             O (  1)   C (  2)   C (  3)   H (  4)   H (  5)   H (  6)
   C (  2)  1.217413
   C (  3)  2.327679  1.479768
   H (  4)  2.015615  1.092503  2.226615
   H (  5)  2.363985  2.070337  1.333073  2.960834
   H (  6)  3.238896  2.147506  1.100076  2.422662  2.169525
   H (  7)  2.688598  2.144862  1.099200  2.996764  1.881711  1.807509

 
 Applying Cartesian multipole field
    Component          Value
    ---------          -----
     (2,0,0)        1.00000E-11
     (0,2,0)        2.00000E-11
     (0,0,2)       -3.00000E-10
 Nucleus-field energy     =    -0.0000000015 hartrees
 Requested basis set is 6-31G
 There are 17 shells and 35 basis functions
 A cutoff of  1.0D-12 yielded    152 shell pairs
 There are       665 function pairs
 Smallest overlap matrix eigenvalue = 9.23E-03
 Guess from superposition of atomic densities
 Warning:  Energy on first SCF cycle will be non-variational
 SAD guess density has 24.000000 electrons

 -----------------------------------------------------------------------
  General SCF calculation program by
  Eric Jon Sundstrom, Paul Horn, Yuezhi Mao, Dmitri Zuev, Alec White,
  David Stuck, Shaama M.S., Shane Yost, Joonho Lee, David Small,
  Daniel Levine, Susi Lehtola, Hugh Burton, Evgeny Epifanovsky,
  Bang C. Huynh
 -----------------------------------------------------------------------
 Hartree-Fock
 A restricted SCF calculation will be
 performed using DIIS
 SCF converges when DIIS error is below 1.0e-08
 ---------------------------------------
  Cycle       Energy         DIIS error
 ---------------------------------------
    1    -153.3930958273      1.63e-01  
    2    -152.7042786848      2.37e-02  
    3    -152.7492772640      2.07e-02  
    4    -152.7982356715      1.79e-03  
    5    -152.7996885911      7.36e-04  
    6    -152.7999149974      3.47e-04  
    7    -152.7999729276      1.12e-04  
    8    -152.7999770033      2.89e-05  
    9    -152.7999772824      5.82e-06  
   10    -152.7999772965      1.54e-06  
   11    -152.7999772983      7.08e-07  
   12    -152.7999772989      2.38e-07  
   13    -152.7999772990      3.61e-08  
   14    -152.7999772990      7.35e-09  Convergence criterion met
 ---------------------------------------
 SCF time:   CPU 0.46s  wall 0.00s 
 SCF   energy in the final basis set =     -152.7999772990
 Total energy in the final basis set =     -152.7999772990
 
 --------------------------------------------------------------
 
                    Orbital Energies (a.u.)
 --------------------------------------------------------------
 
 Alpha MOs
 -- Occupied --
-20.5674 -11.3478 -11.2678  -1.4115  -1.0193  -0.8034  -0.6826  -0.6203
 -0.5789  -0.5580  -0.4645  -0.4239
 -- Virtual --
  0.1212   0.2185   0.2515   0.2866   0.3212   0.4056   0.4436   0.7469
  0.7764   0.8064   0.8603   0.9311   0.9925   1.0315   1.0586   1.1400
  1.2008   1.2088   1.2825   1.3089   1.3874   1.4737   1.9729
 --------------------------------------------------------------
 
          Ground-State Mulliken Net Atomic Charges

     Atom                 Charge (a.u.)
  ----------------------------------------
      1 O                    -0.514436
      2 C                     0.319759
      3 C                    -0.555595
      4 H                     0.168968
      5 H                     0.191025
      6 H                     0.172044
      7 H                     0.218235
  ----------------------------------------
  Sum of atomic charges =     0.000000

 -----------------------------------------------------------------
                    Cartesian Multipole Moments
 -----------------------------------------------------------------
    Charge (ESU x 10^10)
                 0.0000
    Dipole Moment (Debye)
         X      -3.0108      Y       1.0268      Z      -0.6885
       Tot       3.2547
    Quadrupole Moments (Debye-Ang)
        XX     -22.8804     XY      -0.0823     YY     -17.1196
        XZ      -1.9407     YZ      -0.1541     ZZ     -18.8683
    Octopole Moments (Debye-Ang^2)
       XXX      -7.8098    XXY      -0.4800    XYY       0.1531
       YYY      -2.7275    XXZ      -3.2641    XYZ       0.9823
       YYZ      -2.3678    XZZ      -0.3029    YZZ      -1.6918
       ZZZ      -4.5022
    Hexadecapole Moments (Debye-Ang^3)
      XXXX    -134.6636   XXXY     -12.4814   XXYY     -30.4058
      XYYY      -9.5116   YYYY     -47.9108   XXXZ     -11.7009
      XXYZ      -1.9243   XYYZ      -3.7615   YYYZ      -0.6975
      XXZZ     -27.0316   XYZZ      -2.9683   YYZZ     -12.6628
      XZZZ     -10.4593   YZZZ      -1.2925   ZZZZ     -29.1497
 -----------------------------------------------------------------
 Calculating analytic gradient of the SCF energy
 Gradient of SCF Energy
            1           2           3           4           5           6
    1  -0.0068183  -0.0119680  -0.0344837  -0.0010973   0.0654989  -0.0101616
    2  -0.0153935   0.0003099   0.0562833   0.0041868  -0.0598005   0.0232811
    3  -0.0047984   0.0013392   0.0215431  -0.0070828  -0.0288489   0.0098000
            7
    1  -0.0009698
    2  -0.0088672
    3   0.0080478
 Max gradient component =       6.550E-02
 RMS gradient           =       2.666E-02
 Gradient time:  CPU 0.10 s  wall 0.10 s
 ----------------------------------------------------------------
             Standard Nuclear Orientation (Angstroms)
    I     Atom           X                Y                Z
 ----------------------------------------------------------------
    1      O       1.2603059796     0.0148581998     0.3566078511
    2      C       0.1900010330     0.5695588317     0.0817203607
    3      C      -1.0073401194    -0.2973594738    -0.0664246599
    4      H       0.1645737059     1.6135053039    -0.2110965020
    5      H      -0.4072048767    -1.1963887136    -0.6672389952
    6      H      -1.8805597840     0.3212706631    -0.3908619556
    7      H      -1.2706452728    -0.7674494047     0.8775999074
 ----------------------------------------------------------------
 Nuclear Repulsion Energy =          69.72265242 hartrees
 There are       12 alpha and       12 beta electrons

                       Distance Matrix (Angstroms)
             O (  1)   C (  2)   C (  3)   H (  4)   H (  5)   H (  6)
   C (  2)  1.236450
   C (  3)  2.327801  1.485638
   H (  4)  2.019552  1.084533  2.246267
   H (  5)  2.301298  2.009021  1.236687  2.903533
   H (  6)  3.243091  2.138271  1.118247  2.425852  2.133178
   H (  7)  2.699843  2.134128  1.086967  2.985642  1.821001  1.779411

 
 Applying Cartesian multipole field
    Component          Value
    ---------          -----
     (2,0,0)        1.00000E-11
     (0,2,0)        2.00000E-11
     (0,0,2)       -3.00000E-10
 Nucleus-field energy     =    -0.0000000013 hartrees
 Requested basis set is 6-31G
 There are 17 shells and 35 basis functions
 A cutoff of  1.0D-12 yielded    152 shell pairs
 There are       665 function pairs
 Smallest overlap matrix eigenvalue = 9.11E-03
 Guess from superposition of atomic densities
 Warning:  Energy on first SCF cycle will be non-variational
 SAD guess density has 24.000000 electrons

 -----------------------------------------------------------------------
  General SCF calculation program by
  Eric Jon Sundstrom, Paul Horn, Yuezhi Mao, Dmitri Zuev, Alec White,
  David Stuck, Shaama M.S., Shane Yost, Joonho Lee, David Small,
  Daniel Levine, Susi Lehtola, Hugh Burton, Evgeny Epifanovsky,
  Bang C. Huynh
 -----------------------------------------------------------------------
 Hartree-Fock
 A restricted SCF calculation will be
 performed using DIIS
 SCF converges when DIIS error is below 1.0e-08
 ---------------------------------------
  Cycle       Energy         DIIS error
 ---------------------------------------
    1    -153.4018838510      1.62e-01  
    2    -152.7097344568      2.41e-02  
    3    -152.7538749987      2.15e-02  
    4    -152.8071395323      1.80e-03  
    5    -152.8085769823      7.42e-04  
    6    -152.8088037294      3.54e-04  
    7    -152.8088648849      1.19e-04  
    8    -152.8088697668      3.09e-05  
    9    -152.8088701125      6.25e-06  
   10    -152.8088701286      1.71e-06  
   11    -152.8088701309      8.13e-07  
   12    -152.8088701318      2.66e-07  
   13    -152.8088701319      4.12e-08  
   14    -152.8088701319      8.48e-09  Convergence criterion met
 ---------------------------------------
 SCF time:   CPU 0.46s  wall 1.00s 
 SCF   energy in the final basis set =     -152.8088701319
 Total energy in the final basis set =     -152.8088701319
 
 --------------------------------------------------------------
 
                    Orbital Energies (a.u.)
 --------------------------------------------------------------
 
 Alpha MOs
 -- Occupied --
-20.5672 -11.3480 -11.2605  -1.3988  -1.0221  -0.8085  -0.6788  -0.6159
 -0.5754  -0.5640  -0.4691  -0.4254
 -- Virtual --
  0.1220   0.2276   0.2526   0.2927   0.3193   0.4005   0.4393   0.7413
  0.7774   0.7999   0.8694   0.9216   0.9780   1.0455   1.0714   1.1418
  1.2056   1.2129   1.2752   1.3077   1.3937   1.4711   1.9663
 --------------------------------------------------------------
 
          Ground-State Mulliken Net Atomic Charges

     Atom                 Charge (a.u.)
  ----------------------------------------
      1 O                    -0.527056
      2 C                     0.316144
      3 C                    -0.568887
      4 H                     0.174494
      5 H                     0.219072
      6 H                     0.170294
      7 H                     0.215940
  ----------------------------------------
  Sum of atomic charges =     0.000000

 -----------------------------------------------------------------
                    Cartesian Multipole Moments
 -----------------------------------------------------------------
    Charge (ESU x 10^10)
                 0.0000
    Dipole Moment (Debye)
         X      -3.0515      Y       1.0701      Z      -0.6679
       Tot       3.3020
    Quadrupole Moments (Debye-Ang)
        XX     -22.9955     XY      -0.0359     YY     -16.9621
        XZ      -1.9358     YZ      -0.1304     ZZ     -18.8394
    Octopole Moments (Debye-Ang^2)
       XXX      -8.1119    XXY      -0.3175    XYY       0.0634
       YYY      -2.1507    XXZ      -2.9229    XYZ       0.9027
       YYZ      -2.2631    XZZ      -0.2928    YZZ      -1.4827
       ZZZ      -4.1704
    Hexadecapole Moments (Debye-Ang^3)
      XXXX    -135.4347   XXXY     -12.3720   XXYY     -30.2385
      XYYY      -9.3356   YYYY     -46.8129   XXXZ     -11.8231
      XXYZ      -1.7082   XYYZ      -3.6913   YYYZ      -0.5864
      XXZZ     -26.9036   XYZZ      -2.9803   YYZZ     -12.4590
      XZZZ     -10.3382   YZZZ      -1.0135   ZZZZ     -28.0091
 -----------------------------------------------------------------
 Calculating analytic gradient of the SCF energy
 Gradient of SCF Energy
            1           2           3           4           5           6
    1   0.0162104  -0.0391230  -0.0244617   0.0012272   0.0640747  -0.0168877
    2  -0.0295768   0.0224494   0.0229887  -0.0001964  -0.0445027   0.0317298
    3  -0.0001939  -0.0022284   0.0132007  -0.0080497  -0.0156078   0.0128154
            7
    1  -0.0010400
    2  -0.0028919
    3   0.0000637
 Max gradient component =       6.407E-02
 RMS gradient           =       2.424E-02
 Gradient time:  CPU 0.10 s  wall 0.10 s
 FSM gradient convergence criteria satisfied
done with opt_step_by_gradient, Reactant, iter2
-Optimizing new product side node
 Using BFGS, step: 3 E_tol 0.0179396
 max_steps 3, node_spacing 0.1970700, sigma 0.7000000
 ----------------------------------------------------------------
             Standard Nuclear Orientation (Angstroms)
    I     Atom           X                Y                Z
 ----------------------------------------------------------------
    1      O       1.0800015543    -0.2878183294     0.0437086269
    2      C      -0.0173674493     0.5219993855    -0.0530537620
    3      C      -1.2505544119     0.0393144124     0.0443373133
    4      H       0.1611721967     1.5773284043    -0.2409038108
    5      H       0.6536011140    -1.3785309746    -0.0835835621
    6      H      -2.0824711000     0.7255507980    -0.0390329434
    7      H      -1.4910509646    -0.9686314007     0.3840090002
 ----------------------------------------------------------------
 Nuclear Repulsion Energy =          69.62502487 hartrees
 There are       12 alpha and       12 beta electrons

                       Distance Matrix (Angstroms)
             O (  1)   C (  2)   C (  3)   H (  4)   H (  5)   H (  6)
   C (  2)  1.367255
   C (  3)  2.353403  1.327863
   H (  4)  2.098577  1.086685  2.107088
   H (  5)  1.177996  2.015725  2.377490  3.000723
   H (  6)  3.321897  2.075159  1.081645  2.408363  3.451845
   H (  7)  2.681347  2.141202  1.090491  3.098753  2.232979  1.843637

 
 Applying Cartesian multipole field
    Component          Value
    ---------          -----
     (2,0,0)        1.00000E-11
     (0,2,0)        2.00000E-11
     (0,0,2)       -3.00000E-10
 Nucleus-field energy     =     0.0000000012 hartrees
 Requested basis set is 6-31G
 There are 17 shells and 35 basis functions
 A cutoff of  1.0D-12 yielded    152 shell pairs
 There are       665 function pairs
 Smallest overlap matrix eigenvalue = 7.06E-03
 Guess from superposition of atomic densities
 Warning:  Energy on first SCF cycle will be non-variational
 SAD guess density has 24.000000 electrons

 -----------------------------------------------------------------------
  General SCF calculation program by
  Eric Jon Sundstrom, Paul Horn, Yuezhi Mao, Dmitri Zuev, Alec White,
  David Stuck, Shaama M.S., Shane Yost, Joonho Lee, David Small,
  Daniel Levine, Susi Lehtola, Hugh Burton, Evgeny Epifanovsky,
  Bang C. Huynh
 -----------------------------------------------------------------------
 Hartree-Fock
 A restricted SCF calculation will be
 performed using DIIS
 SCF converges when DIIS error is below 1.0e-08
 ---------------------------------------
  Cycle       Energy         DIIS error
 ---------------------------------------
    1    -153.3839862655      1.62e-01  
    2    -152.7421771619      1.51e-02  
    3    -152.7797266630      7.60e-03  
    4    -152.7870949910      1.83e-03  
    5    -152.7879022528      5.24e-04  
    6    -152.7879795154      2.47e-04  
    7    -152.7880006046      5.47e-05  
    8    -152.7880025367      1.84e-05  
    9    -152.7880026714      6.55e-06  
   10    -152.7880026914      1.29e-06  
   11    -152.7880026923      2.52e-07  
   12    -152.7880026923      8.07e-08  
   13    -152.7880026923      1.84e-08  
   14    -152.7880026923      3.21e-09  Convergence criterion met
 ---------------------------------------
 SCF time:   CPU 0.46s  wall 0.00s 
 SCF   energy in the final basis set =     -152.7880026923
 Total energy in the final basis set =     -152.7880026923
 
 --------------------------------------------------------------
 
                    Orbital Energies (a.u.)
 --------------------------------------------------------------
 
 Alpha MOs
 -- Occupied --
-20.6070 -11.3088 -11.2237  -1.3773  -1.0260  -0.8010  -0.6701  -0.6485
 -0.5727  -0.5414  -0.5142  -0.3504
 -- Virtual --
  0.1533   0.1924   0.2665   0.2840   0.3346   0.4497   0.5191   0.7351
  0.7693   0.8579   0.8622   0.8770   0.9743   0.9858   1.1156   1.1667
  1.2261   1.2338   1.2720   1.3721   1.4647   1.5730   2.0405
 --------------------------------------------------------------
 
          Ground-State Mulliken Net Atomic Charges

     Atom                 Charge (a.u.)
  ----------------------------------------
      1 O                    -0.731979
      2 C                     0.248386
      3 C                    -0.465630
      4 H                     0.216258
      5 H                     0.404984
      6 H                     0.166739
      7 H                     0.161242
  ----------------------------------------
  Sum of atomic charges =     0.000000

 -----------------------------------------------------------------
                    Cartesian Multipole Moments
 -----------------------------------------------------------------
    Charge (ESU x 10^10)
                 0.0000
    Dipole Moment (Debye)
         X      -1.5194      Y      -0.6276      Z      -0.2562
       Tot       1.6637
    Quadrupole Moments (Debye-Ang)
        XX     -22.0135     XY      -0.1854     YY     -13.4667
        XZ      -0.6567     YZ      -0.4592     ZZ     -20.7897
    Octopole Moments (Debye-Ang^2)
       XXX       1.5472    XXY      -0.3707    XYY       4.5225
       YYY      -6.8157    XXZ       0.0510    XYZ       0.9333
       YYZ      -0.9251    XZZ       4.2161    YZZ      -1.6694
       ZZZ      -0.7385
    Hexadecapole Moments (Debye-Ang^3)
      XXXX    -140.0899   XXXY       6.0821   XXYY     -28.0447
      XYYY       4.9145   YYYY     -37.6156   XXXZ       0.1540
      XXYZ      -0.2654   XYYZ      -0.2083   YYYZ       1.0509
      XXZZ     -29.0369   XYZZ       3.0842   YYZZ     -12.1324
      XZZZ       1.1576   YZZZ       1.8996   ZZZZ     -21.3630
 -----------------------------------------------------------------
 Calculating analytic gradient of the SCF energy
 Gradient of SCF Energy
            1           2           3           4           5           6
    1   0.0361239   0.0240019   0.0106022  -0.0078505  -0.0539002  -0.0033815
    2   0.1074447   0.0014465  -0.0169991   0.0140847  -0.1053547   0.0070598
    3   0.0162197   0.0030490  -0.0129200  -0.0016867  -0.0162019   0.0006738
            7
    1  -0.0055959
    2  -0.0076817
    3   0.0108661
 Max gradient component =       1.074E-01
 RMS gradient           =       3.721E-02
 Gradient time:  CPU 0.10 s  wall 0.10 s
 ----------------------------------------------------------------
             Standard Nuclear Orientation (Angstroms)
    I     Atom           X                Y                Z
 ----------------------------------------------------------------
    1      O       1.0654845972    -0.3180925421     0.0495132914
    2      C      -0.0089201398     0.5208115679    -0.0505362511
    3      C      -1.2617238796     0.0367081688     0.0460682131
    4      H       0.1658856120     1.5704722771    -0.2402448268
    5      H       0.6566199806    -1.3365090408    -0.0970167487
    6      H      -2.0790226950     0.7162376473    -0.0491541141
    7      H      -1.4850130856    -0.9602828877     0.3951827896
 ----------------------------------------------------------------
 Nuclear Repulsion Energy =          69.79390790 hartrees
 There are       12 alpha and       12 beta electrons

                       Distance Matrix (Angstroms)
             O (  1)   C (  2)   C (  3)   H (  4)   H (  5)   H (  6)
   C (  2)  1.366790
   C (  3)  2.354102  1.346553
   H (  4)  2.111851  1.080895  2.114823
   H (  5)  1.107165  1.973511  2.363523  2.951589
   H (  6)  3.311722  2.079307  1.067148  2.409532  3.420497
   H (  7)  2.652722  2.138026  1.079690  3.087711  2.229439  1.833304

 
 Applying Cartesian multipole field
    Component          Value
    ---------          -----
     (2,0,0)        1.00000E-11
     (0,2,0)        2.00000E-11
     (0,0,2)       -3.00000E-10
 Nucleus-field energy     =     0.0000000012 hartrees
 Requested basis set is 6-31G
 There are 17 shells and 35 basis functions
 A cutoff of  1.0D-12 yielded    152 shell pairs
 There are       665 function pairs
 Smallest overlap matrix eigenvalue = 7.44E-03
 Guess from superposition of atomic densities
 Warning:  Energy on first SCF cycle will be non-variational
 SAD guess density has 24.000000 electrons

 -----------------------------------------------------------------------
  General SCF calculation program by
  Eric Jon Sundstrom, Paul Horn, Yuezhi Mao, Dmitri Zuev, Alec White,
  David Stuck, Shaama M.S., Shane Yost, Joonho Lee, David Small,
  Daniel Levine, Susi Lehtola, Hugh Burton, Evgeny Epifanovsky,
  Bang C. Huynh
 -----------------------------------------------------------------------
 Hartree-Fock
 A restricted SCF calculation will be
 performed using DIIS
 SCF converges when DIIS error is below 1.0e-08
 ---------------------------------------
  Cycle       Energy         DIIS error
 ---------------------------------------
    1    -153.4275917590      1.63e-01  
    2    -152.7561322182      1.53e-02  
    3    -152.7936552250      7.32e-03  
    4    -152.8006866164      1.73e-03  
    5    -152.8013901390      4.04e-04  
    6    -152.8014414298      2.25e-04  
    7    -152.8014560437      4.98e-05  
    8    -152.8014576399      1.62e-05  
    9    -152.8014577432      5.71e-06  
   10    -152.8014577576      1.17e-06  
   11    -152.8014577582      1.72e-07  
   12    -152.8014577582      4.12e-08  
   13    -152.8014577582      1.12e-08  
   14    -152.8014577582      2.33e-09  Convergence criterion met
 ---------------------------------------
 SCF time:   CPU 0.46s  wall 0.00s 
 SCF   energy in the final basis set =     -152.8014577582
 Total energy in the final basis set =     -152.8014577582
 
 --------------------------------------------------------------
 
                    Orbital Energies (a.u.)
 --------------------------------------------------------------
 
 Alpha MOs
 -- Occupied --
-20.6020 -11.3113 -11.2228  -1.3860  -1.0229  -0.8101  -0.6715  -0.6587
 -0.5741  -0.5488  -0.5168  -0.3468
 -- Virtual --
  0.1653   0.1963   0.2693   0.2880   0.3360   0.4493   0.5119   0.7415
  0.7726   0.8517   0.8640   0.8745   0.9604   1.0167   1.1156   1.1780
  1.2275   1.2421   1.2808   1.3572   1.4677   1.5643   2.0465
 --------------------------------------------------------------
 
          Ground-State Mulliken Net Atomic Charges

     Atom                 Charge (a.u.)
  ----------------------------------------
      1 O                    -0.744080
      2 C                     0.243683
      3 C                    -0.463822
      4 H                     0.216569
      5 H                     0.420210
      6 H                     0.166275
      7 H                     0.161166
  ----------------------------------------
  Sum of atomic charges =     0.000000

 -----------------------------------------------------------------
                    Cartesian Multipole Moments
 -----------------------------------------------------------------
    Charge (ESU x 10^10)
                -0.0000
    Dipole Moment (Debye)
         X      -1.4722      Y      -0.5548      Z      -0.3098
       Tot       1.6035
    Quadrupole Moments (Debye-Ang)
        XX     -21.9578     XY      -0.1364     YY     -13.5485
        XZ      -0.6917     YZ      -0.4323     ZZ     -20.7273
    Octopole Moments (Debye-Ang^2)
       XXX       1.9947    XXY      -0.1781    XYY       4.5869
       YYY      -6.1638    XXZ      -0.0932    XYZ       1.0263
       YYZ      -1.0291    XZZ       4.3451    YZZ      -1.5905
       ZZZ      -0.8997
    Hexadecapole Moments (Debye-Ang^3)
      XXXX    -139.4455   XXXY       6.2813   XXYY     -27.8956
      XYYY       5.1431   YYYY     -37.5420   XXXZ       0.1434
      XXYZ      -0.2629   XYYZ      -0.2434   YYYZ       1.0993
      XXZZ     -28.8856   XYZZ       3.1313   YYZZ     -11.9685
      XZZZ       1.0860   YZZZ       1.9180   ZZZZ     -21.3996
 -----------------------------------------------------------------
 Calculating analytic gradient of the SCF energy
 Gradient of SCF Energy
            1           2           3           4           5           6
    1   0.0290059   0.0486391  -0.0211936  -0.0107077  -0.0485714   0.0051355
    2   0.0879911   0.0146654  -0.0252089   0.0110406  -0.0882207   0.0006884
    3   0.0171966   0.0008001  -0.0098425  -0.0010037  -0.0170308   0.0009938
            7
    1  -0.0023078
    2  -0.0009560
    3   0.0088866
 Max gradient component =       8.822E-02
 RMS gradient           =       3.340E-02
 Gradient time:  CPU 0.10 s  wall 0.10 s
 ----------------------------------------------------------------
             Standard Nuclear Orientation (Angstroms)
    I     Atom           X                Y                Z
 ----------------------------------------------------------------
    1      O       1.0441081592    -0.3502836376     0.0551707905
    2      C      -0.0037854357     0.5127112423    -0.0465269548
    3      C      -1.2651851017     0.0360548534     0.0480617216
    4      H       0.1736099114     1.5620477273    -0.2393603355
    5      H       0.6614984535    -1.2865090408    -0.1131719127
    6      H      -2.0787339702     0.7072684816    -0.0626249869
    7      H      -1.4782172061    -0.9516018455     0.4099020360
 ----------------------------------------------------------------
 Nuclear Repulsion Energy =          70.29581751 hartrees
 There are       12 alpha and       12 beta electrons

                       Distance Matrix (Angstroms)
             O (  1)   C (  2)   C (  3)   H (  4)   H (  5)   H (  6)
   C (  2)  1.361317
   C (  3)  2.341398  1.351768
   H (  4)  2.121680  1.081555  2.116931
   H (  5)  1.025304  1.919437  2.342495  2.892790
   H (  6)  3.299157  2.084112  1.060491  2.415561  3.389185
   H (  7)  2.617163  2.127555  1.073209  3.077094  2.228038  1.826404

 
 Applying Cartesian multipole field
    Component          Value
    ---------          -----
     (2,0,0)        1.00000E-11
     (0,2,0)        2.00000E-11
     (0,0,2)       -3.00000E-10
 Nucleus-field energy     =     0.0000000012 hartrees
 Requested basis set is 6-31G
 There are 17 shells and 35 basis functions
 A cutoff of  1.0D-12 yielded    152 shell pairs
 There are       665 function pairs
 Smallest overlap matrix eigenvalue = 7.45E-03
 Guess from superposition of atomic densities
 Warning:  Energy on first SCF cycle will be non-variational
 SAD guess density has 24.000000 electrons

 -----------------------------------------------------------------------
  General SCF calculation program by
  Eric Jon Sundstrom, Paul Horn, Yuezhi Mao, Dmitri Zuev, Alec White,
  David Stuck, Shaama M.S., Shane Yost, Joonho Lee, David Small,
  Daniel Levine, Susi Lehtola, Hugh Burton, Evgeny Epifanovsky,
  Bang C. Huynh
 -----------------------------------------------------------------------
 Hartree-Fock
 A restricted SCF calculation will be
 performed using DIIS
 SCF converges when DIIS error is below 1.0e-08
 ---------------------------------------
  Cycle       Energy         DIIS error
 ---------------------------------------
    1    -153.5141376554      1.67e-01  
    2    -152.7677639291      1.55e-02  
    3    -152.8053846143      7.11e-03  
    4    -152.8121439772      1.65e-03  
    5    -152.8127613933      3.02e-04  
    6    -152.8127956485      1.85e-04  
    7    -152.8128039181      4.32e-05  
    8    -152.8128051122      1.37e-05  
    9    -152.8128051842      4.63e-06  
   10    -152.8128051934      1.06e-06  
   11    -152.8128051939      1.52e-07  
   12    -152.8128051940      2.70e-08  
   13    -152.8128051940      5.23e-09  Convergence criterion met
 ---------------------------------------
 SCF time:   CPU 0.43s  wall 1.00s 
 SCF   energy in the final basis set =     -152.8128051940
 Total energy in the final basis set =     -152.8128051940
 
 --------------------------------------------------------------
 
                    Orbital Energies (a.u.)
 --------------------------------------------------------------
 
 Alpha MOs
 -- Occupied --
-20.5950 -11.3124 -11.2215  -1.4014  -1.0239  -0.8204  -0.6749  -0.6719
 -0.5777  -0.5523  -0.5194  -0.3457
 -- Virtual --
  0.1707   0.2121   0.2702   0.2921   0.3372   0.4524   0.5079   0.7449
  0.7737   0.8493   0.8667   0.8734   0.9561   1.0640   1.1144   1.1853
  1.2278   1.2492   1.2943   1.3540   1.4696   1.5514   2.0465
 --------------------------------------------------------------
 
          Ground-State Mulliken Net Atomic Charges

     Atom                 Charge (a.u.)
  ----------------------------------------
      1 O                    -0.746619
      2 C                     0.238441
      3 C                    -0.464486
      4 H                     0.217468
      5 H                     0.427160
      6 H                     0.166626
      7 H                     0.161409
  ----------------------------------------
  Sum of atomic charges =     0.000000

 -----------------------------------------------------------------
                    Cartesian Multipole Moments
 -----------------------------------------------------------------
    Charge (ESU x 10^10)
                 0.0000
    Dipole Moment (Debye)
         X      -1.4257      Y      -0.4764      Z      -0.3716
       Tot       1.5484
    Quadrupole Moments (Debye-Ang)
        XX     -21.8220     XY      -0.0772     YY     -13.7164
        XZ      -0.7287     YZ      -0.3893     ZZ     -20.6134
    Octopole Moments (Debye-Ang^2)
       XXX       2.5228    XXY       0.0330    XYY       4.6630
       YYY      -5.4000    XXZ      -0.2705    XYZ       1.1332
       YYZ      -1.1376    XZZ       4.4796    YZZ      -1.4974
       ZZZ      -1.0872
    Hexadecapole Moments (Debye-Ang^3)
      XXXX    -137.4864   XXXY       6.4742   XXYY     -27.6078
      XYYY       5.4589   YYYY     -37.6385   XXXZ       0.1721
      XXYZ      -0.2499   XYYZ      -0.2830   YYYZ       1.1627
      XXZZ     -28.5165   XYZZ       3.1845   YYZZ     -11.7879
      XZZZ       1.0243   YZZZ       1.9621   ZZZZ     -21.3603
 -----------------------------------------------------------------
 Calculating analytic gradient of the SCF energy
 Gradient of SCF Energy
            1           2           3           4           5           6
    1   0.0105277   0.0598470  -0.0314095  -0.0122681  -0.0353809   0.0087061
    2   0.0528248   0.0129663  -0.0273373   0.0122746  -0.0514692  -0.0028570
    3   0.0141574   0.0012480  -0.0087813  -0.0010379  -0.0143404   0.0010106
            7
    1  -0.0000222
    2   0.0035978
    3   0.0077438
 Max gradient component =       5.985E-02
 RMS gradient           =       2.510E-02
 Gradient time:  CPU 0.10 s  wall 0.10 s
 FSM gradient convergence criteria satisfied
 After opt distance between the previous and current R_nodes (Angstroms): 0.2059
 After opt distance between the previous and current P_nodes (Angstroms): 0.1956
-Printing perpgrad.txt, Vfile.txt, and stringfile.txt

STARTING FREEZING STRING ITERATION # 3
 The distance between the innermost nodes (Angstroms): 1.645
-Adding two new nodes
 The distance between the previous and current R_nodes (Angstroms): 0.2191
 The distance between the previous and current P_nodes (Angstroms): 0.2293
-Optimizing new reactant side node
 Using BFGS, step: 4 E_tol 0.0179
 max_steps 3, node_spacing 0.1971, sigma 0.7000
 ----------------------------------------------------------------
             Standard Nuclear Orientation (Angstroms)
    I     Atom           X                Y                Z
 ----------------------------------------------------------------
    1      O       1.2346367766    -0.0383713052     0.3161494628
    2      C       0.1651897070     0.5684628502     0.0765193613
    3      C      -1.0435729566    -0.2534961185    -0.0619854477
    4      H       0.1677738602     1.6116038576    -0.2169877930
    5      H      -0.2614924391    -1.2333491891    -0.6409266146
    6      H      -1.9100351847     0.3711365488    -0.3637340083
    7      H      -1.2982347105    -0.7863438646     0.8481604873
 ----------------------------------------------------------------
 Nuclear Repulsion Energy =          69.53420495 hartrees
 There are       12 alpha and       12 beta electrons

                       Distance Matrix (Angstroms)
             O (  1)   C (  2)   C (  3)   H (  4)   H (  5)   H (  6)
   C (  2)  1.252752
   C (  3)  2.319376  1.468301
   H (  4)  2.035890  1.083650  2.229346
   H (  5)  2.140647  1.985778  1.380918  2.908221
   H (  6)  3.243285  2.130568  1.109944  2.424373  2.317089
   H (  7)  2.694056  2.138350  1.084963  3.005641  1.868697  1.784026

 
[...]
 
 --------------------------------------------------------------
 
                    Orbital Energies (a.u.)
 --------------------------------------------------------------
 
 Alpha MOs
 -- Occupied --
-20.5907 -11.3599 -11.2200  -1.4178  -1.0264  -0.8297  -0.7062  -0.6298
 -0.5824  -0.5604  -0.4750  -0.3501
 -- Virtual --
  0.0944   0.2140   0.2556   0.2868   0.3377   0.3994   0.4915   0.7407
  0.7599   0.8024   0.8393   0.8818   0.9630   1.0060   1.1117   1.1615
  1.2135   1.2435   1.2669   1.3297   1.3431   1.4980   2.0127
 --------------------------------------------------------------
 
          Ground-State Mulliken Net Atomic Charges

     Atom                 Charge (a.u.)
  ----------------------------------------
      1 O                    -0.698842
      2 C                     0.352400
      3 C                    -0.725137
      4 H                     0.219747
      5 H                     0.445119
      6 H                     0.173865
      7 H                     0.232847
  ----------------------------------------
  Sum of atomic charges =     0.000000

 -----------------------------------------------------------------
                    Cartesian Multipole Moments
 -----------------------------------------------------------------
    Charge (ESU x 10^10)
                 0.0000
    Dipole Moment (Debye)
         X      -1.9603      Y       1.0505      Z       0.1253
       Tot       2.2276
    Quadrupole Moments (Debye-Ang)
        XX     -23.1905     XY       1.1548     YY     -15.8419
        XZ      -1.0372     YZ      -0.7006     ZZ     -19.7629
    Octopole Moments (Debye-Ang^2)
       XXX      -2.4871    XXY       1.3315    XYY       2.4303
       YYY       0.5695    XXZ       0.1362    XYZ       1.9088
       YYZ      -0.5488    XZZ       2.4341    YZZ      -0.3275
       ZZZ       0.2586
    Hexadecapole Moments (Debye-Ang^3)
      XXXX    -129.3256   XXXY       1.7368   XXYY     -28.7589
      XYYY       1.2043   YYYY     -41.3516   XXXZ      -1.6545
      XXYZ      -1.8707   XYYZ      -1.3712   YYYZ       0.1798
      XXZZ     -25.9542   XYZZ       0.7698   YYZZ     -11.2439
      XZZZ      -2.0598   YZZZ       0.3715   ZZZZ     -22.5698
 -----------------------------------------------------------------
 Calculating analytic gradient of the SCF energy
 Gradient of SCF Energy
            1           2           3           4           5           6
    1   0.0236193   0.0199623   0.0205071  -0.0051373  -0.0476697   0.0012901
    2   0.0321214   0.0030596  -0.0262133  -0.0057099  -0.0078838   0.0019572
    3   0.0120925   0.0136724  -0.0124672  -0.0084085  -0.0149152   0.0059609
            7
    1  -0.0125720
    2   0.0026687
    3   0.0040651
 Max gradient component =       4.767E-02
 RMS gradient           =       1.760E-02
 Gradient time:  CPU 0.10 s  wall 0.10 s
 E1 = -152.6947798, E2 = -152.6930136, Emax = -152.6938686
 Iteration 4, Curvature = -1.6319092
 ----------------------------------------------------------------
             Standard Nuclear Orientation (Angstroms)
    I     Atom           X                Y                Z
 ----------------------------------------------------------------
    1      O       1.1013392253    -0.2868083259     0.0506618344
    2      C       0.0832115344     0.5428543001     0.0385207743
    3      C      -1.1168535253    -0.1368152832    -0.0298099669
    4      H       0.2253236934     1.5819791830    -0.1560073357
    5      H       0.1497409515    -1.0580883661    -0.3011060692
    6      H      -1.9880088865     0.4042633942    -0.3441871044
    7      H      -1.3952909545    -0.8584352883     0.7351395596
 ----------------------------------------------------------------
 Nuclear Repulsion Energy =          71.43355571 hartrees
 There are       12 alpha and       12 beta electrons

                       Distance Matrix (Angstroms)
             O (  1)   C (  2)   C (  3)   H (  4)   H (  5)   H (  6)
   C (  2)  1.313420
   C (  3)  2.224714  1.380861
   H (  4)  2.074243  1.066685  2.184404
   H (  5)  1.274423  1.637922  1.589531  2.645132
   H (  6)  3.190228  2.110836  1.072619  2.514213  2.590425
   H (  7)  2.651119  2.152872  1.087847  3.062051  1.871040  1.763709

 
 Applying Cartesian multipole field
    Component          Value
    ---------          -----
     (2,0,0)        1.00000E-11
     (0,2,0)        2.00000E-11
     (0,0,2)       -3.00000E-10
 Nucleus-field energy     =     0.0000000005 hartrees
 Requested basis set is 6-31G
 There are 17 shells and 35 basis functions
 A cutoff of  1.0D-12 yielded    152 shell pairs
 There are       665 function pairs
 Smallest overlap matrix eigenvalue = 7.68E-03
 Guess from superposition of atomic densities
 Warning:  Energy on first SCF cycle will be non-variational
 SAD guess density has 24.000000 electrons

 -----------------------------------------------------------------------
  General SCF calculation program by
  Eric Jon Sundstrom, Paul Horn, Yuezhi Mao, Dmitri Zuev, Alec White,
  David Stuck, Shaama M.S., Shane Yost, Joonho Lee, David Small,
  Daniel Levine, Susi Lehtola, Hugh Burton, Evgeny Epifanovsky,
  Bang C. Huynh
 -----------------------------------------------------------------------
 Hartree-Fock
 A restricted SCF calculation will be
 performed using DIIS
 SCF converges when DIIS error is below 1.0e-08
 ---------------------------------------
  Cycle       Energy         DIIS error
 ---------------------------------------
    1    -153.5710575784      1.70e-01  
    2    -152.6332491864      1.88e-02  
    3    -152.6736839919      1.29e-02  
    4    -152.6936581466      2.12e-03  
    5    -152.6946096165      8.78e-04  
    6    -152.6947849215      2.12e-04  
    7    -152.6948114970      6.41e-05  
    8    -152.6948148013      2.75e-05  
    9    -152.6948153932      1.30e-05  
   10    -152.6948155612      4.44e-06  
   11    -152.6948155854      1.33e-06  
   12    -152.6948155875      4.70e-07  
   13    -152.6948155878      1.24e-07  
   14    -152.6948155878      3.29e-08  
   15    -152.6948155878      6.74e-09  Convergence criterion met
 ---------------------------------------
 SCF time:   CPU 0.49s  wall 1.00s 
 SCF   energy in the final basis set =     -152.6948155878
 Total energy in the final basis set =     -152.6948155878
 
 --------------------------------------------------------------
 
                    Orbital Energies (a.u.)
 --------------------------------------------------------------
 
 Alpha MOs
 -- Occupied --
-20.5917 -11.3584 -11.2194  -1.4181  -1.0263  -0.8294  -0.7061  -0.6304
 -0.5831  -0.5608  -0.4771  -0.3492
 -- Virtual --
  0.0955   0.2156   0.2562   0.2872   0.3381   0.3994   0.4923   0.7408
  0.7597   0.8040   0.8381   0.8816   0.9638   1.0062   1.1121   1.1627
  1.2140   1.2434   1.2666   1.3302   1.3448   1.4979   2.0155
 --------------------------------------------------------------
 
          Ground-State Mulliken Net Atomic Charges

     Atom                 Charge (a.u.)
  ----------------------------------------
      1 O                    -0.700792
      2 C                     0.347557
      3 C                    -0.720234
      4 H                     0.220143
      5 H                     0.448264
      6 H                     0.173286
      7 H                     0.231776
  ----------------------------------------
  Sum of atomic charges =     0.000000

 -----------------------------------------------------------------
                    Cartesian Multipole Moments
 -----------------------------------------------------------------
    Charge (ESU x 10^10)
                 0.0000
    Dipole Moment (Debye)
         X      -1.9370      Y       1.0131      Z       0.1116
       Tot       2.1888
    Quadrupole Moments (Debye-Ang)
        XX     -23.1618     XY       1.1891     YY     -15.8142
        XZ      -1.0145     YZ      -0.6870     ZZ     -19.7708
    Octopole Moments (Debye-Ang^2)
       XXX      -2.3032    XXY       1.3276    XYY       2.4740
       YYY       0.5094    XXZ       0.1267    XYZ       1.9152
       YYZ      -0.5769    XZZ       2.4550    YZZ      -0.3631
       ZZZ       0.2338
    Hexadecapole Moments (Debye-Ang^3)
      XXXX    -129.1240   XXXY       1.9994   XXYY     -28.7442
      XYYY       1.3895   YYYY     -41.2702   XXXZ      -1.5459
      XXYZ      -1.8511   XYYZ      -1.3330   YYYZ       0.2238
      XXZZ     -25.9103   XYZZ       0.8530   YYZZ     -11.2412
      XZZZ      -1.9752   YZZZ       0.4141   ZZZZ     -22.5435
 -----------------------------------------------------------------
 Calculating analytic gradient of the SCF energy
 Gradient of SCF Energy
            1           2           3           4           5           6
    1   0.0256902   0.0232528   0.0219059  -0.0053093  -0.0550031   0.0022862
    2   0.0363788   0.0024512  -0.0293258  -0.0054213  -0.0084493   0.0007671
    3   0.0131512   0.0143300  -0.0137642  -0.0078168  -0.0166112   0.0052884
            7
    1  -0.0128227
    2   0.0035993
    3   0.0054226
 Max gradient component =       5.500E-02
 RMS gradient           =       1.972E-02
 Gradient time:  CPU 0.10 s  wall 0.10 s
 ----------------------------------------------------------------
             Standard Nuclear Orientation (Angstroms)
    I     Atom           X                Y                Z
 ----------------------------------------------------------------
    1      O       1.1045461856    -0.2822599296     0.0517295855
    2      C       0.0860828288     0.5424348860     0.0392854863
    3      C      -1.1151001313    -0.1402342270    -0.0313359887
    4      H       0.2255942919     1.5822148752    -0.1551407444
    5      H       0.1409739465    -1.0591485533    -0.3033084883
    6      H      -1.9868484168     0.4031898149    -0.3448343785
    7      H      -1.3957305535    -0.8571371539     0.7368167140
 ----------------------------------------------------------------
 Nuclear Repulsion Energy =          71.41558762 hartrees
 There are       12 alpha and       12 beta electrons

                       Distance Matrix (Angstroms)
             O (  1)   C (  2)   C (  3)   H (  4)   H (  5)   H (  6)
   C (  2)  1.310551
   C (  3)  2.225736  1.383425
   H (  4)  2.071622  1.066962  2.186234
   H (  5)  1.287664  1.638735  1.579903  2.646869
   H (  6)  3.191211  2.112814  1.074028  2.514157  2.582206
   H (  7)  2.655412  2.154326  1.087549  3.061817  1.866582  1.762899

 
 Applying Cartesian multipole field
    Component          Value
    ---------          -----
     (2,0,0)        1.00000E-11
     (0,2,0)        2.00000E-11
     (0,0,2)       -3.00000E-10
 Nucleus-field energy     =     0.0000000005 hartrees
 Requested basis set is 6-31G
 There are 17 shells and 35 basis functions
 A cutoff of  1.0D-12 yielded    152 shell pairs
 There are       665 function pairs
 Smallest overlap matrix eigenvalue = 7.73E-03
 Guess from superposition of atomic densities
 Warning:  Energy on first SCF cycle will be non-variational
 SAD guess density has 24.000000 electrons

 -----------------------------------------------------------------------
  General SCF calculation program by
  Eric Jon Sundstrom, Paul Horn, Yuezhi Mao, Dmitri Zuev, Alec White,
  David Stuck, Shaama M.S., Shane Yost, Joonho Lee, David Small,
  Daniel Levine, Susi Lehtola, Hugh Burton, Evgeny Epifanovsky,
  Bang C. Huynh
 -----------------------------------------------------------------------
 Hartree-Fock
 A restricted SCF calculation will be
 performed using DIIS
 SCF converges when DIIS error is below 1.0e-08
 ---------------------------------------
  Cycle       Energy         DIIS error
 ---------------------------------------
    1    -153.5671800794      1.70e-01  
    2    -152.6306369501      1.90e-02  
    3    -152.6709312145      1.32e-02  
    4    -152.6918097060      2.14e-03  
    5    -152.6927771451      8.84e-04  
    6    -152.6929544035      2.08e-04  
    7    -152.6929801293      6.12e-05  
    8    -152.6929829465      2.52e-05  
    9    -152.6929833925      1.11e-05  
   10    -152.6929835001      3.62e-06  
   11    -152.6929835141      1.07e-06  
   12    -152.6929835154      4.30e-07  
   13    -152.6929835156      1.33e-07  
   14    -152.6929835157      3.57e-08  
   15    -152.6929835157      7.30e-09  Convergence criterion met
 ---------------------------------------
 SCF time:   CPU 0.49s  wall 0.00s 
 SCF   energy in the final basis set =     -152.6929835157
 Total energy in the final basis set =     -152.6929835157
 
 --------------------------------------------------------------
 
                    Orbital Energies (a.u.)
 --------------------------------------------------------------
 
 Alpha MOs
 -- Occupied --
-20.5907 -11.3600 -11.2200  -1.4179  -1.0264  -0.8297  -0.7063  -0.6299
 -0.5824  -0.5604  -0.4750  -0.3502
 -- Virtual --
  0.0944   0.2141   0.2556   0.2869   0.3378   0.3994   0.4915   0.7407
  0.7599   0.8024   0.8394   0.8818   0.9630   1.0061   1.1117   1.1614
  1.2135   1.2437   1.2669   1.3297   1.3431   1.4980   2.0128
 --------------------------------------------------------------
 
          Ground-State Mulliken Net Atomic Charges

     Atom                 Charge (a.u.)
  ----------------------------------------
      1 O                    -0.698776
      2 C                     0.352456
      3 C                    -0.725292
      4 H                     0.219760
      5 H                     0.445125
      6 H                     0.173869
      7 H                     0.232859
  ----------------------------------------
  Sum of atomic charges =     0.000000

 -----------------------------------------------------------------
                    Cartesian Multipole Moments
 -----------------------------------------------------------------
    Charge (ESU x 10^10)
                 0.0000
    Dipole Moment (Debye)
         X      -1.9601      Y       1.0521      Z       0.1259
       Tot       2.2282
    Quadrupole Moments (Debye-Ang)
        XX     -23.1902     XY       1.1540     YY     -15.8435
        XZ      -1.0379     YZ      -0.7011     ZZ     -19.7624
    Octopole Moments (Debye-Ang^2)
       XXX      -2.4889    XXY       1.3328    XYY       2.4292
       YYY       0.5762    XXZ       0.1376    XYZ       1.9083
       YYZ      -0.5474    XZZ       2.4341    YZZ      -0.3254
       ZZZ       0.2604
    Hexadecapole Moments (Debye-Ang^3)
      XXXX    -129.3085   XXXY       1.7314   XXYY     -28.7568
      XYYY       1.1982   YYYY     -41.3537   XXXZ      -1.6589
      XXYZ      -1.8702   XYYZ      -1.3721   YYYZ       0.1782
      XXZZ     -25.9516   XYZZ       0.7673   YYZZ     -11.2441
      XZZZ      -2.0622   YZZZ       0.3709   ZZZZ     -22.5688
 -----------------------------------------------------------------
 Calculating analytic gradient of the SCF energy
 Gradient of SCF Energy
            1           2           3           4           5           6
    1   0.0234685   0.0199819   0.0203261  -0.0051416  -0.0475098   0.0014337
    2   0.0320325   0.0028658  -0.0261030  -0.0055810  -0.0077830   0.0018790
    3   0.0120599   0.0136701  -0.0124822  -0.0084416  -0.0148519   0.0060484
            7
    1  -0.0125589
    2   0.0026897
    3   0.0039973
 Max gradient component =       4.751E-02
 RMS gradient           =       1.754E-02
 Gradient time:  CPU 0.10 s  wall 0.10 s
 E1 = -152.6948156, E2 = -152.6929835, Emax = -152.6938686
 Iteration 5, Curvature = -1.6564261
 Curvature, final (in Hartree/Bohr^2) = -0.4638466
 ----------------------------------------------------------------
             Standard Nuclear Orientation (Angstroms)
    I     Atom           X                Y                Z
 ----------------------------------------------------------------
    1      O       1.1029427055    -0.2845341277     0.0511957099
    2      C       0.0846471816     0.5426445930     0.0389031303
    3      C      -1.1159768283    -0.1385247551    -0.0305729778
    4      H       0.2254589927     1.5820970291    -0.1555740400
    5      H       0.1453574490    -1.0586184597    -0.3022072787
    6      H      -1.9874286517     0.4037266045    -0.3445107415
    7      H      -1.3955107540    -0.8577862211     0.7359781368
 ----------------------------------------------------------------
 Nuclear Repulsion Energy =          71.42451403 hartrees
 There are       12 alpha and       12 beta electrons
 Requested basis set is 6-31G
 There are 17 shells and 35 basis functions
 Geometry Optimization Parameters
   NAtoms,    NIC,     NZ,  NCons,   NDum,   NFix, NCnnct, MaxDiis
        7      33       0       0       0       0       0       0


** GEOMETRY OPTIMIZATION IN DELOCALIZED INTERNAL COORDINATES **
   Searching for a Minimum

   Optimization Cycle:   1

                       Coordinates (Angstroms)
     ATOM                X               Y               Z
      1  O         1.1029427055   -0.2845341277    0.0511957099
      2  C         0.0846471816    0.5426445930    0.0389031303
      3  C        -1.1159768283   -0.1385247551   -0.0305729778
      4  H         0.2254589927    1.5820970291   -0.1555740400
      5  H         0.1453574490   -1.0586184597   -0.3022072787
      6  H        -1.9874286517    0.4037266045   -0.3445107415
      7  H        -1.3955107540   -0.8577862211    0.7359781368
   Point Group: c1    Number of degrees of freedom:    15


   Energy is   -152.692983516


 Attempting to generate delocalized internal coordinates
 Initial Hessian constructed with Jon Baker's OPTIMIZE code

 15 Hessian modes will be used to form the next step
  Hessian Eigenvalues:
     0.024769    0.027288    0.027650    0.039301    0.157227    0.160000
     0.160000    0.160000    0.195831    0.220628    0.350806    0.368133
     0.376346    0.487128    0.639720

 Minimum search - taking simple RFO step
 Searching for Lamda that Minimizes Along All modes
 Value Taken    Lamda =  -0.03792257
 Calculated Step too Large.  Step scaled by  0.637314
 Step Taken.  Stepsize is  0.300000

                             Maximum     Tolerance    Cnvgd?
         Gradient           0.066189      0.000300      NO
         Displacement       0.169801      0.001200      NO
         Energy change     *********      0.000001      NO


 New Cartesian Coordinates Obtained by Inverse Iteration

 Displacement from previous Coordinates is:  0.569471
 ----------------------------------------------------------------
             Standard Nuclear Orientation (Angstroms)
    I     Atom           X                Y                Z
 ----------------------------------------------------------------
    1      O       1.0971075294    -0.2834189551     0.0277621238
    2      C       0.0495822346     0.5339615481     0.0046510093
    3      C      -1.1854775520    -0.0817002250    -0.0273780771
    4      H       0.2212905733     1.5818481333    -0.1314533808
    5      H       0.3595120748    -1.2002295312    -0.2833404007
    6      H      -2.0608466835     0.4730044270    -0.3130244294
    7      H      -1.4216780818    -0.8344607341     0.7159950939
 ----------------------------------------------------------------
 Nuclear Repulsion Energy =          70.41878452 hartrees
 There are       12 alpha and       12 beta electrons















 Eigenvalues after right structure
 -0.48367236 -0.00000000 -0.00000000 -0.00000000 0.00000000 0.00000000 0.00003044 0.01300979 0.03256494 0.04650146 0.05438251 0.08470624 0.11187482 0.15985856 0.18780697 0.23948964 0.37515259 0.72308206 0.94104049 1.36767282 1.53071446
 Total job time:  26.10s(wall), 26.12s(cpu) 
 Sun Sep 11 05:59:09 2022

        *************************************************************
        *                                                           *
        *  Thank you very much for using Q-Chem.  Have a nice day.  *
        *                                                           *
        *************************************************************


