Jobname.Temp
SP        R                             6-31G               
Number of atoms                            I               14
Charge                                     I                0
Multiplicity                               I                1
Number of electrons                        I               24
Number of alpha electrons                  I               12
Number of beta electrons                   I               12
Atomic numbers                             I   N=           7
           8           6           6           1           1           1
           1
Current cartesian coordinates              R   N=          21
  2.46199982E+00  2.55332235E-01  9.23390671E-01  4.54102133E-01  1.07511055E+00
  1.39943101E-01 -1.77965922E+00 -6.32617379E-01 -9.64177953E-02  2.98973759E-01
  3.05148534E+00 -3.84465347E-01 -1.33622440E+00 -2.20087747E+00 -1.41740684E+00
 -3.42170952E+00  4.43195767E-01 -8.35827755E-01 -2.26880311E+00 -1.42409364E+00
  1.78384420E+00
Nuclear charges                            R   N=           7
  8.00000000E+00  6.00000000E+00  6.00000000E+00  1.00000000E+00  1.00000000E+00
  1.00000000E+00  1.00000000E+00
Number of basis functions                  I               35
Number of contracted shells                I               17
Number of primitive shells                 I               46
Highest angular momentum                   I                1
Largest degree of contraction              I                6
Shell types                                I   N=          17
           0          -1          -1           0          -1          -1
           0          -1          -1           0           0           0
           0           0           0           0           0
Number of primitives per shell             I   N=          17
           6           3           1           6           3           1
           6           3           1           3           1           3
           1           3           1           3           1
Shell to atom map                          I   N=          17
           1           1           1           2           2           2
           3           3           3           4           4           5
           5           6           6           7           7
Primitive exponents                        R   N=          46
  5.48467170E+03  8.25234950E+02  1.88046960E+02  5.29645000E+01  1.68975700E+01
  5.79963530E+00  1.55396160E+01  3.59993360E+00  1.01376180E+00  2.70005800E-01
  3.04752490E+03  4.57369510E+02  1.03948690E+02  2.92101550E+01  9.28666300E+00
  3.16392700E+00  7.86827240E+00  1.88128850E+00  5.44249300E-01  1.68714400E-01
  3.04752490E+03  4.57369510E+02  1.03948690E+02  2.92101550E+01  9.28666300E+00
  3.16392700E+00  7.86827240E+00  1.88128850E+00  5.44249300E-01  1.68714400E-01
  1.87311370E+01  2.82539370E+00  6.40121700E-01  1.61277800E-01  1.87311370E+01
  2.82539370E+00  6.40121700E-01  1.61277800E-01  1.87311370E+01  2.82539370E+00
  6.40121700E-01  1.61277800E-01  1.87311370E+01  2.82539370E+00  6.40121700E-01
  1.61277800E-01
Contraction coefficients                   R   N=          46
  1.83109981E-03  1.39500985E-02  6.84450927E-02  2.32714275E-01  4.70192950E-01
  3.58520862E-01 -1.10777504E-01 -1.48026305E-01  1.13076704E+00  1.00000000E+00
  1.83470016E-03  1.40373012E-02  6.88426061E-02  2.32184421E-01  4.67941342E-01
  3.62312032E-01 -1.19332409E-01 -1.60854212E-01  1.14345648E+00  1.00000000E+00
  1.83470016E-03  1.40373012E-02  6.88426061E-02  2.32184421E-01  4.67941342E-01
  3.62312032E-01 -1.19332409E-01 -1.60854212E-01  1.14345648E+00  1.00000000E+00
  3.34945995E-02  2.34726947E-01  8.13757318E-01  1.00000000E+00  3.34945995E-02
  2.34726947E-01  8.13757318E-01  1.00000000E+00  3.34945995E-02  2.34726947E-01
  8.13757318E-01  1.00000000E+00  3.34945995E-02  2.34726947E-01  8.13757318E-01
  1.00000000E+00
P(S=P) Contraction coefficients            R   N=          46
  0.00000000E+00  0.00000000E+00  0.00000000E+00  0.00000000E+00  0.00000000E+00
  0.00000000E+00  7.08742995E-02  3.39752798E-01  7.27158595E-01  1.00000000E+00
  0.00000000E+00  0.00000000E+00  0.00000000E+00  0.00000000E+00  0.00000000E+00
  0.00000000E+00  6.89990956E-02  3.16423980E-01  7.44308252E-01  1.00000000E+00
  0.00000000E+00  0.00000000E+00  0.00000000E+00  0.00000000E+00  0.00000000E+00
  0.00000000E+00  6.89990956E-02  3.16423980E-01  7.44308252E-01  1.00000000E+00
  0.00000000E+00  0.00000000E+00  0.00000000E+00  0.00000000E+00  0.00000000E+00
  0.00000000E+00  0.00000000E+00  0.00000000E+00  0.00000000E+00  0.00000000E+00
  0.00000000E+00  0.00000000E+00  0.00000000E+00  0.00000000E+00  0.00000000E+00
  0.00000000E+00
Coordinates of each shell                  R   N=          51
  2.46199982E+00  2.55332235E-01  9.23390671E-01  2.46199982E+00  2.55332235E-01
  9.23390671E-01  2.46199982E+00  2.55332235E-01  9.23390671E-01  4.54102133E-01
  1.07511055E+00  1.39943101E-01  4.54102133E-01  1.07511055E+00  1.39943101E-01
  4.54102133E-01  1.07511055E+00  1.39943101E-01 -1.77965922E+00 -6.32617379E-01
 -9.64177953E-02 -1.77965922E+00 -6.32617379E-01 -9.64177953E-02 -1.77965922E+00
 -6.32617379E-01 -9.64177953E-02  2.98973759E-01  3.05148534E+00 -3.84465347E-01
  2.98973759E-01  3.05148534E+00 -3.84465347E-01 -1.33622440E+00 -2.20087747E+00
 -1.41740684E+00 -1.33622440E+00 -2.20087747E+00 -1.41740684E+00 -3.42170952E+00
  4.43195767E-01 -8.35827755E-01 -3.42170952E+00  4.43195767E-01 -8.35827755E-01
 -2.26880311E+00 -1.42409364E+00  1.78384420E+00 -2.26880311E+00 -1.42409364E+00
  1.78384420E+00
Current cartesian coordinates              R   N=          21
  2.46199982E+00  2.55332235E-01  9.23390671E-01  4.54102133E-01  1.07511055E+00
  1.39943101E-01 -1.77965922E+00 -6.32617379E-01 -9.64177953E-02  2.98973759E-01
  3.05148534E+00 -3.84465347E-01 -1.33622440E+00 -2.20087747E+00 -1.41740684E+00
 -3.42170952E+00  4.43195767E-01 -8.35827755E-01 -2.26880311E+00 -1.42409364E+00
  1.78384420E+00
Overlap Matrix                             R   N=         630
  1.00000000E+00  2.33689906E-01  1.00000000E+00 -1.75355140E-17 -1.10889596E-15
  1.00000000E+00 -9.73602997E-18 -9.19137475E-17  5.28572608E-32  1.00000000E+00
 -3.00065454E-17 -8.65380631E-17  1.40288559E-31  0.00000000E+00  1.00000000E+00
  1.67279760E-01  7.63640773E-01 -2.08233183E-16  0.00000000E+00  0.00000000E+00
  1.00000000E+00 -5.79580886E-18  2.48464929E-17  5.01520641E-01  0.00000000E+00
  0.00000000E+00  0.00000000E+00  1.00000000E+00 -8.22014487E-20  0.00000000E+00
  0.00000000E+00  5.01520641E-01  0.00000000E+00  0.00000000E+00  0.00000000E+00
  1.00000000E+00  9.51483810E-18  0.00000000E+00  0.00000000E+00  0.00000000E+00
  5.01520641E-01  0.00000000E+00  0.00000000E+00  0.00000000E+00  1.00000000E+00
  2.35175361E-06  7.70817572E-03 -1.61465235E-02  6.59225307E-03 -6.30009916E-03
  6.54627024E-02 -1.28950295E-01  5.26474308E-02 -5.03142144E-02  1.00000000E+00
  2.03709434E-02  1.68197883E-01 -1.74247167E-01  7.11410991E-02 -6.79882847E-02
  3.69052498E-01 -5.00129515E-01  2.04191344E-01 -1.95142041E-01  2.19058872E-01
  1.00000000E+00  3.71387686E-02  2.33477868E-01 -1.86640411E-01  1.11906317E-01
 -1.06946880E-01  2.90879009E-01 -1.42223093E-01  1.71891786E-01 -1.64273926E-01
 -2.27890170E-17 -6.66567735E-17  1.00000000E+00 -1.51629025E-02 -9.53236278E-02
  1.11906317E-01  4.17649665E-02  4.36639439E-02 -1.18759190E-01  1.71891786E-01
  2.08615083E-01  6.70692547E-02 -3.26211259E-17 -3.02704569E-16  1.84819075E-32
  1.00000000E+00  1.44909166E-02  9.10990979E-02 -1.06946880E-01  4.36639439E-02
  4.57248788E-02  1.13496048E-01 -1.64273926E-01  6.70692547E-02  2.14697639E-01
 -4.01961179E-18 -2.98414967E-18  4.52031783E-34  1.80812713E-33  1.00000000E+00
  4.96679633E-02  2.85579668E-01 -1.27276632E-01  5.19641128E-02 -4.96611796E-02
  5.52547099E-01 -4.43396179E-01  1.81028432E-01 -1.73005657E-01  1.84261053E-01
  8.12273068E-01 -3.29892230E-18  0.00000000E+00  0.00000000E+00  1.00000000E+00
  8.02951572E-02  4.00220523E-01 -2.78774003E-02  7.43882728E-02 -7.10915510E-02
  5.60921927E-01  8.75019735E-02  1.83772238E-01 -1.75627864E-01  0.00000000E+00
  8.35455798E-19  5.69754058E-01  0.00000000E+00  0.00000000E+00  0.00000000E+00
  1.00000000E+00 -3.27826605E-02 -1.63400808E-01  7.43882728E-02  1.23952112E-01
  2.90250404E-02 -2.29011484E-01  1.83772238E-01  4.62588640E-01  7.17048054E-02
 -1.16092226E-17  0.00000000E+00  0.00000000E+00  5.69754058E-01  0.00000000E+00
  0.00000000E+00  0.00000000E+00  1.00000000E+00  3.13298063E-02  1.56159249E-01
 -7.10915510E-02  2.90250404E-02  1.26584412E-01  2.18862207E-01 -1.75627864E-01
  7.17048054E-02  4.69091597E-01  0.00000000E+00  0.00000000E+00  0.00000000E+00
  0.00000000E+00  5.69754058E-01  0.00000000E+00  0.00000000E+00  0.00000000E+00
  1.00000000E+00  2.90311738E-19  8.36029770E-08 -3.50654876E-07 -7.34061505E-08
 -8.43068262E-08  1.63320984E-03 -6.77589683E-03 -1.41846738E-03 -1.62910712E-03
  4.46592169E-07  9.45671210E-03 -1.80605377E-02 -1.38074216E-02 -1.91103893E-03
  5.04536480E-02 -8.92570177E-02 -6.82376843E-02 -9.44454910E-03  1.00000000E+00
  1.27636122E-05  1.06803617E-03 -2.10506674E-03 -4.40675023E-04 -5.06114438E-04
  2.82604442E-02 -8.23442385E-02 -1.72379567E-02 -1.97977609E-02  9.45671210E-03
  1.38440593E-01 -1.64393927E-01 -1.25680436E-01 -1.73950077E-02  2.97374524E-01
 -4.09202056E-01 -3.12838154E-01 -4.32988801E-02  2.19058872E-01  1.00000000E+00
  4.84358561E-05  2.82676156E-03 -5.19040585E-03 -1.17837628E-03 -1.35336294E-03
  4.18381663E-02 -1.06477195E-01 -2.62637254E-02 -3.01638394E-02  1.80605377E-02
  1.64393927E-01 -1.43986060E-01 -1.66820674E-01 -2.30890902E-02  1.82868068E-01
 -6.25160094E-02 -2.00166596E-01 -2.77043875E-02 -3.75612907E-17 -5.73714035E-17
  1.00000000E+00  1.01395702E-05  5.91754738E-04 -1.17837628E-03  1.91914929E-04
 -2.83313226E-04  8.75840875E-03 -2.62637254E-02  1.34843132E-02 -6.31450319E-03
  1.38074216E-02  1.25680436E-01 -1.66820674E-01 -5.33151216E-02 -1.76517891E-02
  1.39804060E-01 -2.00166596E-01  4.62792172E-02 -2.11802197E-02 -7.24328844E-18
 -6.22257977E-17  4.30514038E-32  1.00000000E+00  1.16452774E-05  6.79629207E-04
 -1.35336294E-03 -2.83313226E-04  1.13211708E-04  1.00590160E-02 -3.01638394E-02
 -6.31450319E-03  1.17301708E-02  1.91103893E-03  1.73950077E-02 -2.30890902E-02
 -1.76517891E-02  7.17774563E-02  1.93498113E-02 -2.77043875E-02 -2.11802197E-02
  1.96376654E-01  9.09304135E-18 -9.39201719E-18  3.92948392E-33  2.92157697E-33
  1.00000000E+00  4.51572312E-03  3.56331403E-02 -3.22448451E-02 -6.75014128E-03
 -7.75252460E-03  1.22569323E-01 -2.07777544E-01 -4.34961858E-02 -4.99552878E-02
  5.04536480E-02  2.97374524E-01 -1.82868068E-01 -1.39804060E-01 -1.93498113E-02
  5.10868621E-01 -4.68729272E-01 -3.58347174E-01 -4.95976310E-02  1.84261053E-01
  8.12273068E-01 -1.31956892E-17  6.59784459E-18 -1.11195061E-17  1.00000000E+00
  1.54180207E-02  1.05723342E-01 -7.87698266E-02 -2.03640581E-02 -2.33880826E-02
  2.62850664E-01 -3.26322418E-01 -9.32778364E-02 -1.07129420E-01  8.92570177E-02
  4.09202056E-01 -6.25160094E-02 -2.00166596E-01 -2.77043875E-02  4.68729272E-01
  8.08028053E-02 -3.28788661E-01 -4.55065363E-02  1.97415540E-17  3.34182319E-18
  5.69754058E-01 -1.20350633E-33 -1.50438291E-34  0.00000000E+00  1.00000000E+00
  3.22761103E-03  2.21321422E-02 -2.03640581E-02  1.42445147E-02 -4.89606513E-03
  5.50252020E-02 -9.32778364E-02  9.97309974E-02 -2.24264908E-02  6.82376843E-02
  3.12838154E-01 -2.00166596E-01  4.62792172E-02 -2.11802197E-02  3.58347174E-01
 -3.28788661E-01  2.59507132E-01 -3.47901009E-02 -3.64603169E-18 -1.67091160E-18
 -1.20350633E-33  5.69754058E-01  7.52191456E-35  9.12045073E-17  0.00000000E+00
  1.00000000E+00  3.70690522E-03  2.54187238E-02 -2.33880826E-02 -4.89606513E-03
  1.28844085E-02  6.31963413E-02 -1.07129420E-01 -2.24264908E-02  9.35010127E-02
  9.44454910E-03  4.32988801E-02 -2.77043875E-02 -2.11802197E-02  1.96376654E-01
  4.95976310E-02 -4.55065363E-02 -3.47901009E-02  5.06053440E-01  7.26780557E-19
 -1.04253688E-17 -1.50438291E-34  7.52191456E-35  5.69754058E-01  1.14005634E-17
  0.00000000E+00  1.03978277E-33  1.00000000E+00  5.38667244E-05  3.32526140E-03
 -3.74272660E-03  4.83823878E-03 -2.26300902E-03  5.09348250E-02 -8.19976064E-02
  1.05998659E-01 -4.95791821E-02  3.34439988E-02  2.76751236E-01 -2.81735555E-02
  3.58938237E-01 -9.52401563E-02  3.78978338E-01 -3.89866677E-02  4.96700027E-01
 -1.31793672E-01  1.64970440E-05  4.70485286E-03  5.18389265E-03  9.18776582E-03
 -7.18360386E-04  5.84001127E-02  8.00607391E-02  1.41897098E-01 -1.10944549E-02
  1.00000000E+00  1.22376266E-02  8.41201010E-02 -3.79336400E-02  4.90369797E-02
 -2.29362652E-02  2.26781202E-01 -1.90632523E-01  2.46431483E-01 -1.15264396E-01
  9.27446435E-02  4.78333407E-01 -2.01107757E-02  2.56216380E-01 -6.79840861E-02
  7.06720849E-01 -4.40165632E-02  5.60782170E-01 -1.48797135E-01  1.08655201E-02
  8.85790987E-02  4.69558779E-02  8.32230988E-02 -6.50693309E-03  2.27038092E-01
  1.89475704E-01  3.35820688E-01 -2.62566856E-02  6.58292049E-01  1.00000000E+00
  5.47796510E-08  3.35748090E-05 -6.43036774E-05 -4.15834630E-05 -3.96295425E-05
  5.32666157E-03 -1.49301144E-02 -9.65490446E-03 -9.20124056E-03  3.98533801E-05
  7.57360075E-03 -7.23722246E-03 -1.32428658E-02 -6.29543706E-03  7.26706648E-02
 -8.58546359E-02 -1.57099140E-01 -7.46823053E-02  2.99409364E-02  2.61169135E-01
  7.53741594E-02 -2.66569699E-01 -2.24539064E-01  3.68998203E-01  1.08498965E-01
 -3.83719523E-01 -3.23217616E-01  2.92862284E-05  1.09430929E-02  1.00000000E+00
  1.91360884E-03  1.66233093E-02 -1.28193879E-02 -8.28995422E-03 -7.90042651E-03
  6.93739005E-02 -1.02401166E-01 -6.62200866E-02 -6.31085424E-02  1.39679901E-02
  1.07987140E-01 -4.96058660E-02 -9.07701582E-02 -4.31506160E-02  2.59347420E-01
 -1.86419426E-01 -3.41115319E-01 -1.62160521E-01  8.99566523E-02  4.67028419E-01
  5.60707770E-02 -1.98300986E-01 -1.67034431E-01  6.95393347E-01  1.23804750E-01
 -4.37850257E-01 -3.68813437E-01  1.09430929E-02  7.99568588E-02  6.58292049E-01
  1.00000000E+00  5.55250825E-11  3.26791510E-07 -9.64649499E-07  3.08007163E-08
 -2.88428451E-07  5.56712200E-04 -2.40609348E-03  7.68252125E-05 -7.19417589E-04
  3.96216457E-05  7.54982031E-03 -1.56175814E-02 -2.54630033E-03 -3.93186824E-03
  7.25657971E-02 -1.85594612E-01 -3.02594626E-02 -4.67251325E-02  2.99520178E-02
  2.61219821E-01 -2.79174132E-01  1.82904994E-01 -1.25711212E-01  3.69031169E-01
 -4.01810416E-01  2.63251940E-01 -1.80933935E-01  8.42030814E-04  4.28810321E-02
  1.63609427E-02  1.42215099E-01  1.00000000E+00  2.95648856E-04  3.24314425E-03
 -3.78914735E-03  1.20985345E-04 -1.13294819E-03  2.10550281E-02 -4.81432301E-02
  1.53718628E-03 -1.43947385E-02  1.39448403E-02  1.07845996E-01 -1.07245136E-01
 -1.74853146E-02 -2.69999390E-02  2.59119652E-01 -4.03218086E-01 -6.57409312E-02
 -1.01513823E-01  8.99658441E-02  4.67065816E-01 -2.07648834E-01  1.36044155E-01
 -9.35036008E-02  6.95430962E-01 -4.58476909E-01  3.00377817E-01 -2.06450675E-01
  4.28810321E-02  1.86122124E-01  1.42215099E-01  3.89944867E-01  6.58292049E-01
  1.00000000E+00  5.46982060E-08  3.35413657E-05 -8.00122046E-05 -2.84041776E-05
  1.45528751E-05  5.32406659E-03 -1.85868241E-02 -6.59828653E-03  3.38063086E-03
  3.98546903E-05  7.57373503E-03 -1.10072804E-02 -1.01029742E-02  6.64543155E-03
  7.26712564E-02 -1.30577267E-01 -1.19849655E-01  7.88334866E-02  2.99410142E-02
  2.61169491E-01 -8.31438250E-02 -1.34533754E-01  3.19603653E-01  3.68998435E-01
 -1.19683068E-01 -1.93657344E-01  4.60059971E-01  2.93078486E-05  1.09463763E-02
  1.61348382E-02  1.41426052E-01  1.63607370E-02  1.42214385E-01  1.00000000E+00
  1.91283978E-03  1.66174670E-02 -1.59612395E-02 -5.66620909E-03  2.90308116E-03
  6.93561002E-02 -1.27511018E-01 -4.52661642E-02  2.31921107E-02  1.39681208E-02
  1.07987936E-01 -7.54460693E-02 -6.92477760E-02  4.55490976E-02  2.59348704E-01
 -2.83526462E-01 -2.60233265E-01  1.71173589E-01  8.99567169E-02  4.67028682E-01
 -6.18505653E-02 -1.00079455E-01  2.37752673E-01  6.95393611E-01 -1.36566544E-01
 -2.20976239E-01  5.24959806E-01  1.09463763E-02  7.99717199E-02  1.41426052E-01
  3.88610793E-01  1.42214385E-01  3.89943659E-01  6.58292049E-01  1.00000000E+00
Core Hamiltonian Matrix                    R   N=         630
 -3.67114696E+01 -8.22404259E+00 -1.35903677E+01  1.01881095E-01  6.95088566E-01
 -1.22870787E+01 -2.63547459E-02 -1.79801668E-01  7.34804149E-02 -1.20918343E+01
  3.60568097E-02  2.45998111E-01 -8.61110991E-02  3.09237538E-02 -1.20851146E+01
 -5.98511213E+00 -1.01924022E+01  6.74805984E-01 -1.74348942E-01  2.38769940E-01
 -1.09558562E+01  1.40390310E-02  4.60002874E-01 -5.75532368E+00  7.42509484E-02
 -8.73056593E-02  1.23025382E+00 -8.89735224E+00 -3.63163642E-03 -1.18825000E-01
  7.42509484E-02 -5.55720110E+00  3.12893753E-02 -3.00542109E-01  2.53403536E-01
 -8.13764422E+00  4.96856330E-03  1.62758915E-01 -8.73056593E-02  3.12893753E-02
 -5.55033531E+00  4.31107875E-01 -3.27205027E-01  1.10879376E-01 -8.10683289E+00
 -1.32222199E-04 -1.93755799E-01  3.99542795E-01 -1.62633270E-01  1.55775797E-01
 -1.58108402E+00  3.10357739E+00 -1.26298235E+00  1.20996014E+00 -2.47700436E+01
 -7.37542674E-01 -2.42586584E+00  2.38743865E+00 -9.49562799E-01  9.25434221E-01
 -4.59626783E+00  5.99867935E+00 -2.33830120E+00  2.31371182E+00 -5.15548485E+00
 -1.16093784E+01 -1.33942469E+00 -3.32677348E+00  2.52425206E+00 -1.44620907E+00
  1.40303268E+00 -3.65446564E+00  1.76778371E+00 -1.87007342E+00  1.79977654E+00
 -5.39359367E-02 -3.83527839E-01 -1.12004102E+01  5.47114284E-01  1.37773428E+00
 -1.50142010E+00 -4.94800896E-01 -5.81466260E-01  1.61570092E+00 -2.12812801E+00
 -2.07270426E+00 -8.09568430E-01  8.14157670E-02  5.89123961E-01  6.15933118E-02
 -1.08243861E+01 -5.22683338E-01 -1.30277610E+00  1.41641972E+00 -5.65389474E-01
 -5.40270221E-01 -1.45589609E+00  1.86234737E+00 -7.34426143E-01 -2.13545481E+00
 -3.54464561E-02 -2.54524196E-01 -2.07712643E-01  8.72881513E-02 -1.06200160E+01
 -1.78348354E+00 -3.91504639E+00  1.82401252E+00 -6.98993437E-01  7.00615705E-01
 -6.17117140E+00  5.13982954E+00 -1.88544474E+00  1.95382089E+00 -4.42049073E+00
 -9.34679865E+00 -3.55390922E-01  5.90257141E-01 -2.46605964E-01 -1.02136761E+01
 -2.87687816E+00 -5.35052464E+00  6.55677384E-01 -9.31702746E-01  9.30153295E-01
 -5.92704684E+00 -3.12312019E-01 -1.60731430E+00  1.58860733E+00 -9.06090269E-03
 -2.52220973E-01 -6.15792887E+00  4.02314349E-02 -1.97483011E-01 -3.16102172E-01
 -8.98754195E+00  1.17508190E+00  2.21027575E+00 -1.00709860E+00 -1.38306890E+00
 -3.85338103E-01  2.58827122E+00 -1.95870202E+00 -3.80487530E+00 -7.21808023E-01
  1.36773539E-02  4.26721222E-01  4.02314349E-02 -5.78581291E+00  7.78102319E-02
  8.77378703E-01 -5.56527897E-02 -8.17759067E+00 -1.12263481E+00 -2.09393468E+00
  9.48434501E-01 -3.63383715E-01 -1.39855682E+00 -2.35346376E+00  1.67380851E+00
 -6.19488182E-01 -3.79191813E+00 -5.95478717E-03 -1.76911377E-01 -1.97483011E-01
  7.78102319E-02 -5.58960033E+00 -3.04785076E-01 -3.94907547E-01  1.27484520E-01
 -7.73090116E+00  0.00000000E+00 -2.86535347E-06  1.15705237E-05  2.40949291E-06
  2.78493912E-06 -3.79739761E-02  1.56837590E-01  3.27624667E-02  3.77249174E-02
 -2.12801518E-05 -2.20689429E-01  4.18156714E-01  3.19903775E-01  4.41931236E-02
 -1.15466091E+00  2.03623057E+00  1.55759711E+00  2.15245477E-01 -2.35344320E+01
 -4.83996480E-04 -1.76380148E-02  3.32941182E-02  5.68736857E-03  8.31575497E-03
 -3.37495991E-01  9.53001923E-01  1.75355600E-01  2.34982093E-01 -2.29689726E-01
 -1.65319523E+00  1.88345649E+00  1.47544847E+00  1.90678697E-01 -3.24972245E+00
  4.30123798E+00  3.33972218E+00  4.42665414E-01 -4.88481317E+00 -1.03747026E+01
 -1.82148304E-03 -4.49315008E-02  7.87291752E-02  1.46689544E-02  2.12313325E-02
 -4.91631413E-01  1.20800266E+00  2.51223906E-01  3.47704252E-01 -4.36636238E-01
 -1.94586700E+00  1.62088616E+00  1.89939800E+00  2.41272950E-01 -2.09073142E+00
  8.43333267E-01  2.12496455E+00  2.72602811E-01 -7.82902247E-02 -5.68018603E-01
 -9.74798856E+00 -3.82050134E-04 -1.03488358E-02  1.98973170E-02 -3.51246457E-03
  5.09391176E-03 -1.25852245E-01  3.52319660E-01 -1.43577014E-01  9.00517108E-02
 -3.32869762E-01 -1.45583607E+00  1.81923744E+00  6.31293206E-01  1.85267869E-01
 -1.53172352E+00  2.00264720E+00 -3.10233584E-01  2.06800576E-01 -4.22848169E-02
 -3.07263247E-01 -1.02344113E-01 -9.63267091E+00 -4.37753752E-04 -1.05741144E-02
  1.99635839E-02  3.57148262E-03 -1.45189145E-03 -1.12640330E-01  3.23190618E-01
  6.06138946E-02 -1.15877352E-01 -4.64301910E-02 -2.13607245E-01  2.60709766E-01
  2.08609492E-01 -7.64017313E-01 -2.37389057E-01  3.02261608E-01  2.42417717E-01
 -1.83309448E+00 -1.25440486E-02 -9.08957043E-02 -3.02054215E-02 -1.19463384E-02
 -9.56493351E+00 -1.62812306E-01 -4.99041730E-01  4.38654675E-01  6.45024519E-02
  1.12090122E-01 -1.36432915E+00  2.24018040E+00  3.05226770E-01  5.78300856E-01
 -1.21240279E+00 -3.42960747E+00  1.92208685E+00  1.67208995E+00  1.54247058E-01
 -5.13699743E+00  4.30559104E+00  3.56656260E+00  3.88930235E-01 -4.19281563E+00
 -8.35204585E+00 -5.79920924E-01 -3.14814268E-01 -9.25305468E-02 -9.10358183E+00
 -5.54928302E-01 -1.46150520E+00  1.06279720E+00  1.96212579E-01  3.25846975E-01
 -2.89451412E+00  3.48928051E+00  6.18895891E-01  1.16445437E+00 -2.14444443E+00
 -4.76109384E+00  5.36454536E-01  2.31709850E+00  1.63569906E-01 -4.96278355E+00
 -5.84002616E-01  3.07527021E+00  2.24078220E-01 -1.31522773E-02 -4.20882533E-01
 -5.27400431E+00 -1.18198268E-01 -3.40241797E-02 -9.84779114E-01 -7.78282796E+00
 -1.16332070E-01 -3.22153221E-01  2.91428900E-01 -1.82761964E-01  7.59222320E-02
 -7.35365305E-01  1.18942521E+00 -9.40114047E-01  3.25742346E-01 -1.63418635E+00
 -3.49601090E+00  1.94524902E+00 -2.85107119E-01  1.61584022E-01 -3.51918186E+00
  2.57081210E+00 -1.79080044E+00  2.33680110E-01 -7.10359064E-03 -2.28684593E-01
 -1.18198268E-01 -5.14418799E+00 -1.36973068E-02 -5.27751339E-01 -3.89201416E-01
 -7.31082662E+00 -1.33380037E-01 -3.47456543E-01  3.02759350E-01  4.81965106E-02
 -1.43150218E-01 -6.64535616E-01  1.02611415E+00  1.59611650E-01 -7.64989325E-01
 -2.28184955E-01 -5.38673025E-01  2.53733373E-01  2.69861187E-01 -1.94630525E+00
 -5.91783900E-01  3.46395889E-01  3.80571124E-01 -3.90576263E+00 -2.10732295E-03
 -6.71050056E-02 -3.40241797E-02 -1.36973068E-02 -5.06532000E+00 -1.58787793E-01
 -1.24341098E-01 -4.56544217E-02 -7.05685839E+00 -2.02964204E-03 -5.25986245E-02
  5.95546021E-02 -6.96491601E-02  3.42300276E-02 -5.45479517E-01  8.67883544E-01
 -1.01207735E+00  4.98124550E-01 -7.97692636E-01 -2.82860607E+00  2.40000991E-01
 -3.32126720E+00  8.75236370E-01 -3.33214730E+00  2.87204309E-01 -3.81485563E+00
  1.00866814E+00 -4.21384639E-04 -6.18417409E-02 -7.04071908E-02 -1.12833411E-01
  6.85807747E-03 -5.69363579E-01 -7.89184660E-01 -1.28138846E+00  8.09095614E-02
 -7.29535021E+00 -4.40289209E-01 -1.15852525E+00  5.59744433E-01 -6.05056528E-01
  3.09704123E-01 -2.42853616E+00  2.19182420E+00 -2.20090196E+00  1.17190394E+00
 -2.22025719E+00 -5.22692909E+00  4.82345542E-02 -2.19436754E+00  5.46144886E-01
 -6.33384236E+00  1.89769410E-01 -3.59190275E+00  9.26237897E-01 -2.49387362E-01
 -9.71866530E-01 -5.70893936E-01 -8.66069807E-01  4.37670605E-02 -2.15348842E+00
 -2.00336528E+00 -2.85989884E+00  1.10111604E-01 -5.10069998E+00 -7.14124069E+00
 -2.22358490E-06 -5.80899858E-04  1.06579788E-03  6.54411314E-04  6.44163966E-04
 -5.49130755E-02  1.51270082E-01  9.11061225E-02  8.85658358E-02 -1.03624624E-03
 -9.48720587E-02  9.15327337E-02  1.56322588E-01  7.04193055E-02 -6.72749252E-01
  7.92596883E-01  1.35996801E+00  6.17720251E-01 -6.82710246E-01 -2.51839971E+00
 -7.40752580E-01  2.31859095E+00  1.97160573E+00 -3.07562876E+00 -8.90200101E-01
  2.79859115E+00  2.37687928E+00 -4.72373802E-04 -1.09649510E-01 -6.93352693E+00
 -6.90173983E-02 -2.28466481E-01  1.73644877E-01  9.17135052E-02  1.01041144E-01
 -7.10229635E-01  1.04324693E+00  5.23055624E-01  5.81127497E-01 -3.36642714E-01
 -1.24898822E+00  5.46771856E-01  1.01858646E+00  4.14660807E-01 -2.47002087E+00
  1.75251685E+00  2.95783946E+00  1.21433655E+00 -2.04690849E+00 -4.68107058E+00
 -7.87983990E-01  1.59152363E+00  1.42227633E+00 -5.79246225E+00 -1.36356617E+00
  2.64427766E+00  2.36141088E+00 -1.15456313E-01 -7.66812663E-01 -4.86507789E+00
 -6.80800537E+00 -2.51404332E-09 -7.88738256E-06  2.23411164E-05 -1.15358961E-06
  6.78658410E-06 -7.23643268E-03  3.00383623E-02 -3.23541682E-04  8.82706799E-03
 -1.01890144E-03 -9.19337549E-02  1.79509831E-01  3.70825267E-02  4.32969789E-02
 -6.51677563E-01  1.56233131E+00  3.14689750E-01  3.78780850E-01 -6.81361890E-01
 -2.47105239E+00  2.35789892E+00 -1.62281568E+00  1.08068419E+00 -2.99735490E+00
  2.82385523E+00 -1.93574604E+00  1.29235974E+00 -9.76354959E-03 -3.59668190E-01
 -1.80770087E-01 -1.19548807E+00 -6.70543795E+00 -1.07095985E-02 -4.74795382E-02
  5.42192609E-02 -3.61313983E-03  1.66673048E-02 -2.45302177E-01  5.41349837E-01
 -2.81129272E-02  1.64480713E-01 -3.34707001E-01 -1.20680579E+00  1.11508622E+00
  2.71789784E-01  2.58905441E-01 -2.37452663E+00  3.32264874E+00  8.54363315E-01
  7.60656607E-01 -2.04572010E+00 -4.63592786E+00  1.53867951E+00 -1.33955369E+00
  7.73302773E-01 -5.67905371E+00  2.52743210E+00 -2.22039976E+00  1.27509071E+00
 -3.80425981E-01 -1.47134176E+00 -1.21712622E+00 -3.06132822E+00 -4.71492085E+00
 -6.57982011E+00 -2.22032564E-06 -5.80354451E-04  1.31549327E-03  4.44982460E-04
 -2.16985415E-04 -5.48883157E-02  1.85124365E-01  6.28097555E-02 -2.79172767E-02
 -1.03627640E-03 -9.48727348E-02  1.33145195E-01  1.21663731E-01 -7.24194691E-02
 -6.72748095E-01  1.15774829E+00  1.05581598E+00 -6.35729896E-01 -6.82711661E-01
 -2.51839050E+00  6.60123803E-01  1.15173933E+00 -2.83715252E+00 -3.07560869E+00
  7.98634596E-01  1.39188052E+00 -3.42033824E+00 -4.72684445E-04 -1.09677410E-01
 -1.81164780E-01 -1.22010573E+00 -1.80767735E-01 -1.21711363E+00 -6.93346028E+00
 -6.89897237E-02 -2.28388593E-01  2.10622816E-01  6.08320850E-02 -2.61270101E-02
 -7.10060872E-01  1.24889375E+00  3.51441501E-01 -1.25722770E-01 -3.36645518E-01
 -1.24898487E+00  8.02768459E-01  8.05359347E-01 -4.64064533E-01 -2.47000313E+00
  2.47664306E+00  2.35467382E+00 -1.27131936E+00 -2.04690967E+00 -4.68106273E+00
  2.50195950E-01  7.26782477E-01 -2.14145297E+00 -5.79243523E+00  3.68570011E-01
  1.20151935E+00 -3.58438747E+00 -1.15485935E-01 -7.66917447E-01 -1.22011218E+00
 -3.11473982E+00 -1.19548180E+00 -3.06131057E+00 -4.86503396E+00 -6.80793816E+00
Number of independent functions            I               35
Alpha MO coefficients                      R   N=        1225
 -9.95860948E-01 -2.27206506E-02  2.04698429E-03 -8.18454209E-04  7.94508170E-04
  1.21414465E-02 -3.62586873E-03  1.31863341E-03 -1.37555410E-03 -1.35188945E-04
  3.67175188E-05 -4.33734092E-05 -1.13186179E-04  1.48180186E-05 -6.04220584E-03
 -3.58089922E-03  2.31254914E-03 -1.60339264E-03  3.83892235E-06  2.40392685E-04
  2.20759808E-04  3.28686117E-05  5.63609473E-05  1.37318361E-04  3.54446525E-04
 -3.20401907E-04  1.80621712E-04  1.49690157E-04 -5.63976729E-04 -3.87991336E-05
  1.59381876E-04  1.06475930E-04 -2.57961264E-04 -3.87987445E-05  1.59757597E-04
 -3.64495515E-04  1.36343769E-04 -2.65142678E-04  1.41234652E-04 -1.11453374E-04
  1.92353295E-04  6.73967224E-04 -5.79142377E-04  3.36676195E-04  9.96159368E-01
  2.41534950E-02  8.42426137E-04 -3.97735999E-04  3.41747173E-04 -1.19022925E-02
  1.98551918E-03  4.82617896E-04  4.61161464E-04  3.36180430E-03 -3.94712070E-04
 -1.54034539E-04 -1.51707321E-04 -8.04979823E-06  3.54538773E-03  1.68756249E-03
  1.88352051E-03  3.45763356E-05 -2.03878812E-04  2.54517679E-03 -1.44512543E-04
  5.89446309E-04 -1.73832396E-04  5.49477320E-05 -1.44528469E-04  5.89518095E-04
  2.69609963E-06  2.13608203E-04 -6.31729529E-05 -2.73828780E-05 -1.17488437E-05
 -2.53971446E-04  8.43132585E-05 -5.32023448E-05  3.74250182E-05  3.54630576E-03
  6.52547071E-04 -6.75160440E-05 -9.51491645E-05  3.40995802E-06 -4.71145008E-03
  2.02434041E-03  1.44009010E-03  2.40292690E-04 -9.96201256E-01 -2.58890993E-02
 -1.45631686E-04 -1.60686872E-04 -3.48201273E-06  1.83539398E-02  9.32672024E-04
  7.81328210E-04  8.21504571E-05  1.78976274E-04 -8.41842741E-05 -4.42888848E-05
 -3.05668165E-03 -5.11854834E-05 -3.07746101E-03 -4.42733913E-05 -3.05672083E-03
 -1.95125210E-01  4.30050915E-01 -1.38270190E-01  5.40962524E-02 -5.33793573E-02
  4.32863602E-01 -6.02210406E-02  2.18479675E-02 -2.28331760E-02 -1.13840024E-01
  2.32831031E-01  1.52638890E-01 -6.90651771E-02  6.11929122E-02  3.76415115E-02
 -4.30058214E-02  2.83150166E-02 -1.93881942E-02 -1.89069878E-02  3.70629086E-02
  2.52829516E-02  1.18090049E-02  4.49880845E-03  2.06380226E-02  6.58758953E-03
 -7.65521295E-03  3.77320435E-03  2.95370033E-02 -1.26910183E-02  6.06347842E-03
 -1.82183315E-04  4.97780222E-03 -3.53491559E-03  6.06294435E-03 -1.80725030E-04
 -5.85658440E-02  1.31642107E-01  2.59134525E-02  2.08898380E-02  2.48035677E-03
  1.65978802E-01  6.30225890E-03  7.88329898E-03 -7.60530582E-05  8.22306644E-02
 -1.79527744E-01  1.69514944E-01  4.26066523E-02  3.90294744E-02 -1.13628501E-01
  1.76709901E-02  3.29419041E-04  5.06525769E-03  1.78591351E-01 -3.38240972E-01
 -3.98075945E-02 -4.07388433E-02 -1.71415495E-03 -3.52059400E-01 -7.13901543E-03
 -1.33887298E-02  1.16779774E-03 -5.58647187E-02 -1.14424980E-02 -1.04394778E-01
 -1.55213027E-02 -1.08390804E-01 -1.80706591E-02 -1.04397353E-01 -1.55228988E-02
 -7.02811553E-02  1.61463139E-01  8.38541297E-02 -1.37469690E-01  5.77503874E-02
  2.26923120E-01  3.88603991E-02 -6.23854172E-02  2.64425710E-02  1.32399780E-01
 -2.93252984E-01  1.84268354E-02 -2.08919585E-01  5.60246235E-02 -2.90201538E-01
  4.00004780E-02 -8.26040259E-02  3.16773876E-02 -7.11260531E-02  1.30413477E-01
 -7.81475087E-02 -1.17028017E-01  5.62134852E-03  1.92766848E-01 -2.03620908E-02
 -2.14775442E-02 -7.21450098E-04 -2.25936496E-01 -9.04231078E-02  8.98415715E-02